 ----------------------------------------------------
    OOO  PPPP  EEEEE N   N M   M PPPP
   O   O P   P E     NN  N MM MM P   P
   O   O PPPP  EEEEE N N N M M M PPPP   -- VERSION
   O   O P     E     N  NN M   M P
    OOO  P     EEEEE N   N M   M P
 ----------------------------------------------------
 running   48 mpi-ranks, with    1 threads/rank
 distrk:  each k-point on   48 cores,    1 groups
 distr:  one band on   12 cores,    4 groups
 vasp.6.3.2 27Jun22 (build Aug 12 2022 00:53:59) complex                        
  
 POSCAR found type information on POSCAR Al
 POSCAR found :  1 types and       4 ions
 Reading from existing POTCAR
 scaLAPACK will be used
 Reading from existing POTCAR
 LDA part: xc-table for Pade appr. of Perdew
 POSCAR, INCAR and KPOINTS ok, starting setup
 FFT: planning ... GRIDC
 FFT: planning ... GRID_SOFT
 FFT: planning ... GRID
 WAVECAR not read
 entering main loop
       N       E                     dE             d eps       ncg     rms          rms(c)
DAV:   1     0.204145529929E+01    0.20415E+01   -0.30843E+03 16664   0.483E+02
DAV:   2    -0.143171227121E+02   -0.16359E+02   -0.15317E+02 20868   0.781E+01
DAV:   3    -0.147936440011E+02   -0.47652E+00   -0.47062E+00 20944   0.111E+01
DAV:   4    -0.147958275645E+02   -0.21836E-02   -0.21829E-02 18212   0.967E-01
DAV:   5    -0.147958429729E+02   -0.15408E-04   -0.15407E-04 20552   0.808E-02    0.321E+00
DAV:   6    -0.147364895262E+02    0.59353E-01   -0.38108E-03 17944   0.369E-01    0.186E+00
DAV:   7    -0.146934085655E+02    0.43081E-01   -0.11648E-02 17524   0.602E-01    0.317E-01
DAV:   8    -0.146932639881E+02    0.14458E-03   -0.13065E-04 20856   0.810E-02    0.138E-01
DAV:   9    -0.146932542090E+02    0.97792E-05   -0.49098E-06 18976   0.148E-02    0.612E-03
DAV:  10    -0.146932540253E+02    0.18367E-06   -0.46246E-08 20688   0.187E-03    0.104E-03
DAV:  11    -0.146932534934E+02    0.53190E-06   -0.38679E-09 19068   0.475E-04    0.417E-04
DAV:  12    -0.146932534945E+02   -0.11654E-08   -0.26895E-11 12252   0.444E-05
   1 F= -.14693253E+02 E0= -.14693256E+02  d E =-.146933E+02
 curvature:   0.00 expect dE= 0.000E+00 dE for cont linesearch  0.000E+00
 trial: gam= 0.00000 g(F)=  0.219E-63 g(S)=  0.000E+00 ort = 0.000E+00 (trialstep = 0.100E+01)
 search vector abs. value=  0.100E-09
 reached required accuracy - stopping structural energy minimisation
