<?xml version="1.0" encoding="ISO-8859-1"?>
<modeling>
 <generator>
  <i name="program" type="string">vasp </i>
  <i name="version" type="string">6.3.2  </i>
  <i name="subversion" type="string">27Jun22 (build Aug 12 2022 00:53:59) complex                          parallel </i>
  <i name="platform" type="string">tv2STD </i>
  <i name="date" type="string">2025 07 01 </i>
  <i name="time" type="string">00:05:42 </i>
 </generator>
 <incar>
  <i type="string" name="PREC">Accurate</i>
  <i type="string" name="ALGO">Normal</i>
  <i type="logical" name="ADDGRID"> T  </i>
  <i type="int" name="NELM">   300</i>
  <i type="int" name="NELMIN">     5</i>
  <i type="int" name="IBRION">     2</i>
  <i name="EDIFF">      0.00000001</i>
  <i name="EDIFFG">     -0.00000001</i>
  <i type="int" name="NSW">   500</i>
  <i type="int" name="ISIF">     2</i>
  <i name="ENCUT">    300.00000000</i>
  <i type="logical" name="LREAL"> F  </i>
  <i type="int" name="ISMEAR">     1</i>
  <i name="SIGMA">      0.20000000</i>
  <i type="logical" name="LWAVE"> F  </i>
  <i type="logical" name="LCHARG"> F  </i>
 </incar>
 <primitive_cell>
  <structure name="primitive_cell" >
   <crystal>
    <varray name="basis" >
     <v>       1.93862351      -1.93862351       0.00000000 </v>
     <v>       1.93862351       0.00000000       1.93862351 </v>
     <v>       0.00000000      -1.93862351       1.93862351 </v>
    </varray>
    <i name="volume">     14.57170678 </i>
    <varray name="rec_basis" >
     <v>       0.25791496      -0.25791496      -0.25791496 </v>
     <v>       0.25791496       0.25791496       0.25791496 </v>
     <v>      -0.25791496      -0.25791496       0.25791496 </v>
    </varray>
   </crystal>
   <varray name="positions" >
    <v>       0.00000000       0.00000000       0.00000000 </v>
   </varray>
  </structure>
  <varray name="primitive_index" >
   <v type="int" >        1 </v>
  </varray>
 </primitive_cell>
 <kpoints>
  <generation param="Monkhorst-Pack">
   <v type="int" name="divisions">      30       30       30 </v>
   <v name="usershift">      0.00000000       0.00000000       0.00000000 </v>
   <v name="genvec1">      0.03333333      -0.00000000       0.00000000 </v>
   <v name="genvec2">      0.00000000       0.03333333       0.00000000 </v>
   <v name="genvec3">     -0.00000000      -0.00000000       0.03333333 </v>
   <v name="shift">      0.50000000       0.50000000       0.50000000 </v>
  </generation>
  <varray name="kpointlist" >
   <v>       0.01666667       0.01666667       0.01666667 </v>
   <v>       0.05000000       0.01666667       0.01666667 </v>
   <v>       0.08333333       0.01666667       0.01666667 </v>
   <v>       0.11666667       0.01666667       0.01666667 </v>
   <v>       0.15000000       0.01666667       0.01666667 </v>
   <v>       0.18333333       0.01666667       0.01666667 </v>
   <v>       0.21666667       0.01666667       0.01666667 </v>
   <v>       0.25000000       0.01666667       0.01666667 </v>
   <v>       0.28333333       0.01666667       0.01666667 </v>
   <v>       0.31666667       0.01666667       0.01666667 </v>
   <v>       0.35000000       0.01666667       0.01666667 </v>
   <v>       0.38333333       0.01666667       0.01666667 </v>
   <v>       0.41666667       0.01666667       0.01666667 </v>
   <v>       0.45000000       0.01666667       0.01666667 </v>
   <v>       0.48333333       0.01666667       0.01666667 </v>
   <v>       0.05000000       0.05000000       0.01666667 </v>
   <v>       0.08333333       0.05000000       0.01666667 </v>
   <v>       0.11666667       0.05000000       0.01666667 </v>
   <v>       0.15000000       0.05000000       0.01666667 </v>
   <v>       0.18333333       0.05000000       0.01666667 </v>
   <v>       0.21666667       0.05000000       0.01666667 </v>
   <v>       0.25000000       0.05000000       0.01666667 </v>
   <v>       0.28333333       0.05000000       0.01666667 </v>
   <v>       0.31666667       0.05000000       0.01666667 </v>
   <v>       0.35000000       0.05000000       0.01666667 </v>
   <v>       0.38333333       0.05000000       0.01666667 </v>
   <v>       0.41666667       0.05000000       0.01666667 </v>
   <v>       0.45000000       0.05000000       0.01666667 </v>
   <v>       0.48333333       0.05000000       0.01666667 </v>
   <v>       0.08333333       0.08333333       0.01666667 </v>
   <v>       0.11666667       0.08333333       0.01666667 </v>
   <v>       0.15000000       0.08333333       0.01666667 </v>
   <v>       0.18333333       0.08333333       0.01666667 </v>
   <v>       0.21666667       0.08333333       0.01666667 </v>
   <v>       0.25000000       0.08333333       0.01666667 </v>
   <v>       0.28333333       0.08333333       0.01666667 </v>
   <v>       0.31666667       0.08333333       0.01666667 </v>
   <v>       0.35000000       0.08333333       0.01666667 </v>
   <v>       0.38333333       0.08333333       0.01666667 </v>
   <v>       0.41666667       0.08333333       0.01666667 </v>
   <v>       0.45000000       0.08333333       0.01666667 </v>
   <v>       0.48333333       0.08333333       0.01666667 </v>
   <v>       0.11666667       0.11666667       0.01666667 </v>
   <v>       0.15000000       0.11666667       0.01666667 </v>
   <v>       0.18333333       0.11666667       0.01666667 </v>
   <v>       0.21666667       0.11666667       0.01666667 </v>
   <v>       0.25000000       0.11666667       0.01666667 </v>
   <v>       0.28333333       0.11666667       0.01666667 </v>
   <v>       0.31666667       0.11666667       0.01666667 </v>
   <v>       0.35000000       0.11666667       0.01666667 </v>
   <v>       0.38333333       0.11666667       0.01666667 </v>
   <v>       0.41666667       0.11666667       0.01666667 </v>
   <v>       0.45000000       0.11666667       0.01666667 </v>
   <v>       0.48333333       0.11666667       0.01666667 </v>
   <v>       0.15000000       0.15000000       0.01666667 </v>
   <v>       0.18333333       0.15000000       0.01666667 </v>
   <v>       0.21666667       0.15000000       0.01666667 </v>
   <v>       0.25000000       0.15000000       0.01666667 </v>
   <v>       0.28333333       0.15000000       0.01666667 </v>
   <v>       0.31666667       0.15000000       0.01666667 </v>
   <v>       0.35000000       0.15000000       0.01666667 </v>
   <v>       0.38333333       0.15000000       0.01666667 </v>
   <v>       0.41666667       0.15000000       0.01666667 </v>
   <v>       0.45000000       0.15000000       0.01666667 </v>
   <v>       0.48333333       0.15000000       0.01666667 </v>
   <v>       0.18333333       0.18333333       0.01666667 </v>
   <v>       0.21666667       0.18333333       0.01666667 </v>
   <v>       0.25000000       0.18333333       0.01666667 </v>
   <v>       0.28333333       0.18333333       0.01666667 </v>
   <v>       0.31666667       0.18333333       0.01666667 </v>
   <v>       0.35000000       0.18333333       0.01666667 </v>
   <v>       0.38333333       0.18333333       0.01666667 </v>
   <v>       0.41666667       0.18333333       0.01666667 </v>
   <v>       0.45000000       0.18333333       0.01666667 </v>
   <v>       0.48333333       0.18333333       0.01666667 </v>
   <v>       0.21666667       0.21666667       0.01666667 </v>
   <v>       0.25000000       0.21666667       0.01666667 </v>
   <v>       0.28333333       0.21666667       0.01666667 </v>
   <v>       0.31666667       0.21666667       0.01666667 </v>
   <v>       0.35000000       0.21666667       0.01666667 </v>
   <v>       0.38333333       0.21666667       0.01666667 </v>
   <v>       0.41666667       0.21666667       0.01666667 </v>
   <v>       0.45000000       0.21666667       0.01666667 </v>
   <v>       0.48333333       0.21666667       0.01666667 </v>
   <v>       0.25000000       0.25000000       0.01666667 </v>
   <v>       0.28333333       0.25000000       0.01666667 </v>
   <v>       0.31666667       0.25000000       0.01666667 </v>
   <v>       0.35000000       0.25000000       0.01666667 </v>
   <v>       0.38333333       0.25000000       0.01666667 </v>
   <v>       0.41666667       0.25000000       0.01666667 </v>
   <v>       0.45000000       0.25000000       0.01666667 </v>
   <v>       0.48333333       0.25000000       0.01666667 </v>
   <v>       0.28333333       0.28333333       0.01666667 </v>
   <v>       0.31666667       0.28333333       0.01666667 </v>
   <v>       0.35000000       0.28333333       0.01666667 </v>
   <v>       0.38333333       0.28333333       0.01666667 </v>
   <v>       0.41666667       0.28333333       0.01666667 </v>
   <v>       0.45000000       0.28333333       0.01666667 </v>
   <v>       0.48333333       0.28333333       0.01666667 </v>
   <v>       0.31666667       0.31666667       0.01666667 </v>
   <v>       0.35000000       0.31666667       0.01666667 </v>
   <v>       0.38333333       0.31666667       0.01666667 </v>
   <v>       0.41666667       0.31666667       0.01666667 </v>
   <v>       0.45000000       0.31666667       0.01666667 </v>
   <v>       0.48333333       0.31666667       0.01666667 </v>
   <v>       0.35000000       0.35000000       0.01666667 </v>
   <v>       0.38333333       0.35000000       0.01666667 </v>
   <v>       0.41666667       0.35000000       0.01666667 </v>
   <v>       0.45000000       0.35000000       0.01666667 </v>
   <v>       0.48333333       0.35000000       0.01666667 </v>
   <v>       0.38333333       0.38333333       0.01666667 </v>
   <v>       0.41666667       0.38333333       0.01666667 </v>
   <v>       0.45000000       0.38333333       0.01666667 </v>
   <v>       0.48333333       0.38333333       0.01666667 </v>
   <v>       0.41666667       0.41666667       0.01666667 </v>
   <v>       0.45000000       0.41666667       0.01666667 </v>
   <v>       0.48333333       0.41666667       0.01666667 </v>
   <v>       0.45000000       0.45000000       0.01666667 </v>
   <v>       0.48333333       0.45000000       0.01666667 </v>
   <v>       0.48333333       0.48333333       0.01666667 </v>
   <v>       0.05000000       0.05000000       0.05000000 </v>
   <v>       0.08333333       0.05000000       0.05000000 </v>
   <v>       0.11666667       0.05000000       0.05000000 </v>
   <v>       0.15000000       0.05000000       0.05000000 </v>
   <v>       0.18333333       0.05000000       0.05000000 </v>
   <v>       0.21666667       0.05000000       0.05000000 </v>
   <v>       0.25000000       0.05000000       0.05000000 </v>
   <v>       0.28333333       0.05000000       0.05000000 </v>
   <v>       0.31666667       0.05000000       0.05000000 </v>
   <v>       0.35000000       0.05000000       0.05000000 </v>
   <v>       0.38333333       0.05000000       0.05000000 </v>
   <v>       0.41666667       0.05000000       0.05000000 </v>
   <v>       0.45000000       0.05000000       0.05000000 </v>
   <v>       0.48333333       0.05000000       0.05000000 </v>
   <v>       0.08333333       0.08333333       0.05000000 </v>
   <v>       0.11666667       0.08333333       0.05000000 </v>
   <v>       0.15000000       0.08333333       0.05000000 </v>
   <v>       0.18333333       0.08333333       0.05000000 </v>
   <v>       0.21666667       0.08333333       0.05000000 </v>
   <v>       0.25000000       0.08333333       0.05000000 </v>
   <v>       0.28333333       0.08333333       0.05000000 </v>
   <v>       0.31666667       0.08333333       0.05000000 </v>
   <v>       0.35000000       0.08333333       0.05000000 </v>
   <v>       0.38333333       0.08333333       0.05000000 </v>
   <v>       0.41666667       0.08333333       0.05000000 </v>
   <v>       0.45000000       0.08333333       0.05000000 </v>
   <v>       0.48333333       0.08333333       0.05000000 </v>
   <v>       0.11666667       0.11666667       0.05000000 </v>
   <v>       0.15000000       0.11666667       0.05000000 </v>
   <v>       0.18333333       0.11666667       0.05000000 </v>
   <v>       0.21666667       0.11666667       0.05000000 </v>
   <v>       0.25000000       0.11666667       0.05000000 </v>
   <v>       0.28333333       0.11666667       0.05000000 </v>
   <v>       0.31666667       0.11666667       0.05000000 </v>
   <v>       0.35000000       0.11666667       0.05000000 </v>
   <v>       0.38333333       0.11666667       0.05000000 </v>
   <v>       0.41666667       0.11666667       0.05000000 </v>
   <v>       0.45000000       0.11666667       0.05000000 </v>
   <v>       0.48333333       0.11666667       0.05000000 </v>
   <v>       0.15000000       0.15000000       0.05000000 </v>
   <v>       0.18333333       0.15000000       0.05000000 </v>
   <v>       0.21666667       0.15000000       0.05000000 </v>
   <v>       0.25000000       0.15000000       0.05000000 </v>
   <v>       0.28333333       0.15000000       0.05000000 </v>
   <v>       0.31666667       0.15000000       0.05000000 </v>
   <v>       0.35000000       0.15000000       0.05000000 </v>
   <v>       0.38333333       0.15000000       0.05000000 </v>
   <v>       0.41666667       0.15000000       0.05000000 </v>
   <v>       0.45000000       0.15000000       0.05000000 </v>
   <v>       0.48333333       0.15000000       0.05000000 </v>
   <v>       0.18333333       0.18333333       0.05000000 </v>
   <v>       0.21666667       0.18333333       0.05000000 </v>
   <v>       0.25000000       0.18333333       0.05000000 </v>
   <v>       0.28333333       0.18333333       0.05000000 </v>
   <v>       0.31666667       0.18333333       0.05000000 </v>
   <v>       0.35000000       0.18333333       0.05000000 </v>
   <v>       0.38333333       0.18333333       0.05000000 </v>
   <v>       0.41666667       0.18333333       0.05000000 </v>
   <v>       0.45000000       0.18333333       0.05000000 </v>
   <v>       0.48333333       0.18333333       0.05000000 </v>
   <v>       0.21666667       0.21666667       0.05000000 </v>
   <v>       0.25000000       0.21666667       0.05000000 </v>
   <v>       0.28333333       0.21666667       0.05000000 </v>
   <v>       0.31666667       0.21666667       0.05000000 </v>
   <v>       0.35000000       0.21666667       0.05000000 </v>
   <v>       0.38333333       0.21666667       0.05000000 </v>
   <v>       0.41666667       0.21666667       0.05000000 </v>
   <v>       0.45000000       0.21666667       0.05000000 </v>
   <v>       0.48333333       0.21666667       0.05000000 </v>
   <v>       0.25000000       0.25000000       0.05000000 </v>
   <v>       0.28333333       0.25000000       0.05000000 </v>
   <v>       0.31666667       0.25000000       0.05000000 </v>
   <v>       0.35000000       0.25000000       0.05000000 </v>
   <v>       0.38333333       0.25000000       0.05000000 </v>
   <v>       0.41666667       0.25000000       0.05000000 </v>
   <v>       0.45000000       0.25000000       0.05000000 </v>
   <v>       0.48333333       0.25000000       0.05000000 </v>
   <v>       0.28333333       0.28333333       0.05000000 </v>
   <v>       0.31666667       0.28333333       0.05000000 </v>
   <v>       0.35000000       0.28333333       0.05000000 </v>
   <v>       0.38333333       0.28333333       0.05000000 </v>
   <v>       0.41666667       0.28333333       0.05000000 </v>
   <v>       0.45000000       0.28333333       0.05000000 </v>
   <v>       0.48333333       0.28333333       0.05000000 </v>
   <v>       0.31666667       0.31666667       0.05000000 </v>
   <v>       0.35000000       0.31666667       0.05000000 </v>
   <v>       0.38333333       0.31666667       0.05000000 </v>
   <v>       0.41666667       0.31666667       0.05000000 </v>
   <v>       0.45000000       0.31666667       0.05000000 </v>
   <v>       0.48333333       0.31666667       0.05000000 </v>
   <v>       0.35000000       0.35000000       0.05000000 </v>
   <v>       0.38333333       0.35000000       0.05000000 </v>
   <v>       0.41666667       0.35000000       0.05000000 </v>
   <v>       0.45000000       0.35000000       0.05000000 </v>
   <v>       0.48333333       0.35000000       0.05000000 </v>
   <v>       0.38333333       0.38333333       0.05000000 </v>
   <v>       0.41666667       0.38333333       0.05000000 </v>
   <v>       0.45000000       0.38333333       0.05000000 </v>
   <v>       0.48333333       0.38333333       0.05000000 </v>
   <v>       0.41666667       0.41666667       0.05000000 </v>
   <v>       0.45000000       0.41666667       0.05000000 </v>
   <v>       0.48333333       0.41666667       0.05000000 </v>
   <v>       0.45000000       0.45000000       0.05000000 </v>
   <v>       0.48333333       0.45000000       0.05000000 </v>
   <v>       0.48333333       0.48333333       0.05000000 </v>
   <v>       0.08333333       0.08333333       0.08333333 </v>
   <v>       0.11666667       0.08333333       0.08333333 </v>
   <v>       0.15000000       0.08333333       0.08333333 </v>
   <v>       0.18333333       0.08333333       0.08333333 </v>
   <v>       0.21666667       0.08333333       0.08333333 </v>
   <v>       0.25000000       0.08333333       0.08333333 </v>
   <v>       0.28333333       0.08333333       0.08333333 </v>
   <v>       0.31666667       0.08333333       0.08333333 </v>
   <v>       0.35000000       0.08333333       0.08333333 </v>
   <v>       0.38333333       0.08333333       0.08333333 </v>
   <v>       0.41666667       0.08333333       0.08333333 </v>
   <v>       0.45000000       0.08333333       0.08333333 </v>
   <v>       0.48333333       0.08333333       0.08333333 </v>
   <v>       0.11666667       0.11666667       0.08333333 </v>
   <v>       0.15000000       0.11666667       0.08333333 </v>
   <v>       0.18333333       0.11666667       0.08333333 </v>
   <v>       0.21666667       0.11666667       0.08333333 </v>
   <v>       0.25000000       0.11666667       0.08333333 </v>
   <v>       0.28333333       0.11666667       0.08333333 </v>
   <v>       0.31666667       0.11666667       0.08333333 </v>
   <v>       0.35000000       0.11666667       0.08333333 </v>
   <v>       0.38333333       0.11666667       0.08333333 </v>
   <v>       0.41666667       0.11666667       0.08333333 </v>
   <v>       0.45000000       0.11666667       0.08333333 </v>
   <v>       0.48333333       0.11666667       0.08333333 </v>
   <v>       0.15000000       0.15000000       0.08333333 </v>
   <v>       0.18333333       0.15000000       0.08333333 </v>
   <v>       0.21666667       0.15000000       0.08333333 </v>
   <v>       0.25000000       0.15000000       0.08333333 </v>
   <v>       0.28333333       0.15000000       0.08333333 </v>
   <v>       0.31666667       0.15000000       0.08333333 </v>
   <v>       0.35000000       0.15000000       0.08333333 </v>
   <v>       0.38333333       0.15000000       0.08333333 </v>
   <v>       0.41666667       0.15000000       0.08333333 </v>
   <v>       0.45000000       0.15000000       0.08333333 </v>
   <v>       0.48333333       0.15000000       0.08333333 </v>
   <v>       0.18333333       0.18333333       0.08333333 </v>
   <v>       0.21666667       0.18333333       0.08333333 </v>
   <v>       0.25000000       0.18333333       0.08333333 </v>
   <v>       0.28333333       0.18333333       0.08333333 </v>
   <v>       0.31666667       0.18333333       0.08333333 </v>
   <v>       0.35000000       0.18333333       0.08333333 </v>
   <v>       0.38333333       0.18333333       0.08333333 </v>
   <v>       0.41666667       0.18333333       0.08333333 </v>
   <v>       0.45000000       0.18333333       0.08333333 </v>
   <v>       0.48333333       0.18333333       0.08333333 </v>
   <v>       0.21666667       0.21666667       0.08333333 </v>
   <v>       0.25000000       0.21666667       0.08333333 </v>
   <v>       0.28333333       0.21666667       0.08333333 </v>
   <v>       0.31666667       0.21666667       0.08333333 </v>
   <v>       0.35000000       0.21666667       0.08333333 </v>
   <v>       0.38333333       0.21666667       0.08333333 </v>
   <v>       0.41666667       0.21666667       0.08333333 </v>
   <v>       0.45000000       0.21666667       0.08333333 </v>
   <v>       0.48333333       0.21666667       0.08333333 </v>
   <v>       0.25000000       0.25000000       0.08333333 </v>
   <v>       0.28333333       0.25000000       0.08333333 </v>
   <v>       0.31666667       0.25000000       0.08333333 </v>
   <v>       0.35000000       0.25000000       0.08333333 </v>
   <v>       0.38333333       0.25000000       0.08333333 </v>
   <v>       0.41666667       0.25000000       0.08333333 </v>
   <v>       0.45000000       0.25000000       0.08333333 </v>
   <v>       0.48333333       0.25000000       0.08333333 </v>
   <v>       0.28333333       0.28333333       0.08333333 </v>
   <v>       0.31666667       0.28333333       0.08333333 </v>
   <v>       0.35000000       0.28333333       0.08333333 </v>
   <v>       0.38333333       0.28333333       0.08333333 </v>
   <v>       0.41666667       0.28333333       0.08333333 </v>
   <v>       0.45000000       0.28333333       0.08333333 </v>
   <v>       0.48333333       0.28333333       0.08333333 </v>
   <v>       0.31666667       0.31666667       0.08333333 </v>
   <v>       0.35000000       0.31666667       0.08333333 </v>
   <v>       0.38333333       0.31666667       0.08333333 </v>
   <v>       0.41666667       0.31666667       0.08333333 </v>
   <v>       0.45000000       0.31666667       0.08333333 </v>
   <v>       0.48333333       0.31666667       0.08333333 </v>
   <v>       0.35000000       0.35000000       0.08333333 </v>
   <v>       0.38333333       0.35000000       0.08333333 </v>
   <v>       0.41666667       0.35000000       0.08333333 </v>
   <v>       0.45000000       0.35000000       0.08333333 </v>
   <v>       0.48333333       0.35000000       0.08333333 </v>
   <v>       0.38333333       0.38333333       0.08333333 </v>
   <v>       0.41666667       0.38333333       0.08333333 </v>
   <v>       0.45000000       0.38333333       0.08333333 </v>
   <v>       0.48333333       0.38333333       0.08333333 </v>
   <v>       0.41666667       0.41666667       0.08333333 </v>
   <v>       0.45000000       0.41666667       0.08333333 </v>
   <v>       0.48333333       0.41666667       0.08333333 </v>
   <v>       0.45000000       0.45000000       0.08333333 </v>
   <v>       0.48333333       0.45000000       0.08333333 </v>
   <v>       0.48333333       0.48333333       0.08333333 </v>
   <v>       0.11666667       0.11666667       0.11666667 </v>
   <v>       0.15000000       0.11666667       0.11666667 </v>
   <v>       0.18333333       0.11666667       0.11666667 </v>
   <v>       0.21666667       0.11666667       0.11666667 </v>
   <v>       0.25000000       0.11666667       0.11666667 </v>
   <v>       0.28333333       0.11666667       0.11666667 </v>
   <v>       0.31666667       0.11666667       0.11666667 </v>
   <v>       0.35000000       0.11666667       0.11666667 </v>
   <v>       0.38333333       0.11666667       0.11666667 </v>
   <v>       0.41666667       0.11666667       0.11666667 </v>
   <v>       0.45000000       0.11666667       0.11666667 </v>
   <v>       0.48333333       0.11666667       0.11666667 </v>
   <v>       0.15000000       0.15000000       0.11666667 </v>
   <v>       0.18333333       0.15000000       0.11666667 </v>
   <v>       0.21666667       0.15000000       0.11666667 </v>
   <v>       0.25000000       0.15000000       0.11666667 </v>
   <v>       0.28333333       0.15000000       0.11666667 </v>
   <v>       0.31666667       0.15000000       0.11666667 </v>
   <v>       0.35000000       0.15000000       0.11666667 </v>
   <v>       0.38333333       0.15000000       0.11666667 </v>
   <v>       0.41666667       0.15000000       0.11666667 </v>
   <v>       0.45000000       0.15000000       0.11666667 </v>
   <v>       0.48333333       0.15000000       0.11666667 </v>
   <v>       0.18333333       0.18333333       0.11666667 </v>
   <v>       0.21666667       0.18333333       0.11666667 </v>
   <v>       0.25000000       0.18333333       0.11666667 </v>
   <v>       0.28333333       0.18333333       0.11666667 </v>
   <v>       0.31666667       0.18333333       0.11666667 </v>
   <v>       0.35000000       0.18333333       0.11666667 </v>
   <v>       0.38333333       0.18333333       0.11666667 </v>
   <v>       0.41666667       0.18333333       0.11666667 </v>
   <v>       0.45000000       0.18333333       0.11666667 </v>
   <v>       0.48333333       0.18333333       0.11666667 </v>
   <v>       0.21666667       0.21666667       0.11666667 </v>
   <v>       0.25000000       0.21666667       0.11666667 </v>
   <v>       0.28333333       0.21666667       0.11666667 </v>
   <v>       0.31666667       0.21666667       0.11666667 </v>
   <v>       0.35000000       0.21666667       0.11666667 </v>
   <v>       0.38333333       0.21666667       0.11666667 </v>
   <v>       0.41666667       0.21666667       0.11666667 </v>
   <v>       0.45000000       0.21666667       0.11666667 </v>
   <v>       0.48333333       0.21666667       0.11666667 </v>
   <v>       0.25000000       0.25000000       0.11666667 </v>
   <v>       0.28333333       0.25000000       0.11666667 </v>
   <v>       0.31666667       0.25000000       0.11666667 </v>
   <v>       0.35000000       0.25000000       0.11666667 </v>
   <v>       0.38333333       0.25000000       0.11666667 </v>
   <v>       0.41666667       0.25000000       0.11666667 </v>
   <v>       0.45000000       0.25000000       0.11666667 </v>
   <v>       0.48333333       0.25000000       0.11666667 </v>
   <v>       0.28333333       0.28333333       0.11666667 </v>
   <v>       0.31666667       0.28333333       0.11666667 </v>
   <v>       0.35000000       0.28333333       0.11666667 </v>
   <v>       0.38333333       0.28333333       0.11666667 </v>
   <v>       0.41666667       0.28333333       0.11666667 </v>
   <v>       0.45000000       0.28333333       0.11666667 </v>
   <v>       0.48333333       0.28333333       0.11666667 </v>
   <v>       0.31666667       0.31666667       0.11666667 </v>
   <v>       0.35000000       0.31666667       0.11666667 </v>
   <v>       0.38333333       0.31666667       0.11666667 </v>
   <v>       0.41666667       0.31666667       0.11666667 </v>
   <v>       0.45000000       0.31666667       0.11666667 </v>
   <v>       0.48333333       0.31666667       0.11666667 </v>
   <v>       0.35000000       0.35000000       0.11666667 </v>
   <v>       0.38333333       0.35000000       0.11666667 </v>
   <v>       0.41666667       0.35000000       0.11666667 </v>
   <v>       0.45000000       0.35000000       0.11666667 </v>
   <v>       0.48333333       0.35000000       0.11666667 </v>
   <v>       0.38333333       0.38333333       0.11666667 </v>
   <v>       0.41666667       0.38333333       0.11666667 </v>
   <v>       0.45000000       0.38333333       0.11666667 </v>
   <v>       0.48333333       0.38333333       0.11666667 </v>
   <v>       0.41666667       0.41666667       0.11666667 </v>
   <v>       0.45000000       0.41666667       0.11666667 </v>
   <v>       0.48333333       0.41666667       0.11666667 </v>
   <v>       0.45000000       0.45000000       0.11666667 </v>
   <v>       0.48333333       0.45000000       0.11666667 </v>
   <v>       0.48333333       0.48333333       0.11666667 </v>
   <v>       0.15000000       0.15000000       0.15000000 </v>
   <v>       0.18333333       0.15000000       0.15000000 </v>
   <v>       0.21666667       0.15000000       0.15000000 </v>
   <v>       0.25000000       0.15000000       0.15000000 </v>
   <v>       0.28333333       0.15000000       0.15000000 </v>
   <v>       0.31666667       0.15000000       0.15000000 </v>
   <v>       0.35000000       0.15000000       0.15000000 </v>
   <v>       0.38333333       0.15000000       0.15000000 </v>
   <v>       0.41666667       0.15000000       0.15000000 </v>
   <v>       0.45000000       0.15000000       0.15000000 </v>
   <v>       0.48333333       0.15000000       0.15000000 </v>
   <v>       0.18333333       0.18333333       0.15000000 </v>
   <v>       0.21666667       0.18333333       0.15000000 </v>
   <v>       0.25000000       0.18333333       0.15000000 </v>
   <v>       0.28333333       0.18333333       0.15000000 </v>
   <v>       0.31666667       0.18333333       0.15000000 </v>
   <v>       0.35000000       0.18333333       0.15000000 </v>
   <v>       0.38333333       0.18333333       0.15000000 </v>
   <v>       0.41666667       0.18333333       0.15000000 </v>
   <v>       0.45000000       0.18333333       0.15000000 </v>
   <v>       0.48333333       0.18333333       0.15000000 </v>
   <v>       0.21666667       0.21666667       0.15000000 </v>
   <v>       0.25000000       0.21666667       0.15000000 </v>
   <v>       0.28333333       0.21666667       0.15000000 </v>
   <v>       0.31666667       0.21666667       0.15000000 </v>
   <v>       0.35000000       0.21666667       0.15000000 </v>
   <v>       0.38333333       0.21666667       0.15000000 </v>
   <v>       0.41666667       0.21666667       0.15000000 </v>
   <v>       0.45000000       0.21666667       0.15000000 </v>
   <v>       0.48333333       0.21666667       0.15000000 </v>
   <v>       0.25000000       0.25000000       0.15000000 </v>
   <v>       0.28333333       0.25000000       0.15000000 </v>
   <v>       0.31666667       0.25000000       0.15000000 </v>
   <v>       0.35000000       0.25000000       0.15000000 </v>
   <v>       0.38333333       0.25000000       0.15000000 </v>
   <v>       0.41666667       0.25000000       0.15000000 </v>
   <v>       0.45000000       0.25000000       0.15000000 </v>
   <v>       0.48333333       0.25000000       0.15000000 </v>
   <v>       0.28333333       0.28333333       0.15000000 </v>
   <v>       0.31666667       0.28333333       0.15000000 </v>
   <v>       0.35000000       0.28333333       0.15000000 </v>
   <v>       0.38333333       0.28333333       0.15000000 </v>
   <v>       0.41666667       0.28333333       0.15000000 </v>
   <v>       0.45000000       0.28333333       0.15000000 </v>
   <v>       0.48333333       0.28333333       0.15000000 </v>
   <v>       0.31666667       0.31666667       0.15000000 </v>
   <v>       0.35000000       0.31666667       0.15000000 </v>
   <v>       0.38333333       0.31666667       0.15000000 </v>
   <v>       0.41666667       0.31666667       0.15000000 </v>
   <v>       0.45000000       0.31666667       0.15000000 </v>
   <v>       0.48333333       0.31666667       0.15000000 </v>
   <v>       0.35000000       0.35000000       0.15000000 </v>
   <v>       0.38333333       0.35000000       0.15000000 </v>
   <v>       0.41666667       0.35000000       0.15000000 </v>
   <v>       0.45000000       0.35000000       0.15000000 </v>
   <v>       0.48333333       0.35000000       0.15000000 </v>
   <v>       0.38333333       0.38333333       0.15000000 </v>
   <v>       0.41666667       0.38333333       0.15000000 </v>
   <v>       0.45000000       0.38333333       0.15000000 </v>
   <v>       0.48333333       0.38333333       0.15000000 </v>
   <v>       0.41666667       0.41666667       0.15000000 </v>
   <v>       0.45000000       0.41666667       0.15000000 </v>
   <v>       0.48333333       0.41666667       0.15000000 </v>
   <v>       0.45000000       0.45000000       0.15000000 </v>
   <v>       0.48333333       0.45000000       0.15000000 </v>
   <v>       0.48333333       0.48333333       0.15000000 </v>
   <v>       0.18333333       0.18333333       0.18333333 </v>
   <v>       0.21666667       0.18333333       0.18333333 </v>
   <v>       0.25000000       0.18333333       0.18333333 </v>
   <v>       0.28333333       0.18333333       0.18333333 </v>
   <v>       0.31666667       0.18333333       0.18333333 </v>
   <v>       0.35000000       0.18333333       0.18333333 </v>
   <v>       0.38333333       0.18333333       0.18333333 </v>
   <v>       0.41666667       0.18333333       0.18333333 </v>
   <v>       0.45000000       0.18333333       0.18333333 </v>
   <v>       0.48333333       0.18333333       0.18333333 </v>
   <v>       0.21666667       0.21666667       0.18333333 </v>
   <v>       0.25000000       0.21666667       0.18333333 </v>
   <v>       0.28333333       0.21666667       0.18333333 </v>
   <v>       0.31666667       0.21666667       0.18333333 </v>
   <v>       0.35000000       0.21666667       0.18333333 </v>
   <v>       0.38333333       0.21666667       0.18333333 </v>
   <v>       0.41666667       0.21666667       0.18333333 </v>
   <v>       0.45000000       0.21666667       0.18333333 </v>
   <v>       0.48333333       0.21666667       0.18333333 </v>
   <v>       0.25000000       0.25000000       0.18333333 </v>
   <v>       0.28333333       0.25000000       0.18333333 </v>
   <v>       0.31666667       0.25000000       0.18333333 </v>
   <v>       0.35000000       0.25000000       0.18333333 </v>
   <v>       0.38333333       0.25000000       0.18333333 </v>
   <v>       0.41666667       0.25000000       0.18333333 </v>
   <v>       0.45000000       0.25000000       0.18333333 </v>
   <v>       0.48333333       0.25000000       0.18333333 </v>
   <v>       0.28333333       0.28333333       0.18333333 </v>
   <v>       0.31666667       0.28333333       0.18333333 </v>
   <v>       0.35000000       0.28333333       0.18333333 </v>
   <v>       0.38333333       0.28333333       0.18333333 </v>
   <v>       0.41666667       0.28333333       0.18333333 </v>
   <v>       0.45000000       0.28333333       0.18333333 </v>
   <v>       0.48333333       0.28333333       0.18333333 </v>
   <v>       0.31666667       0.31666667       0.18333333 </v>
   <v>       0.35000000       0.31666667       0.18333333 </v>
   <v>       0.38333333       0.31666667       0.18333333 </v>
   <v>       0.41666667       0.31666667       0.18333333 </v>
   <v>       0.45000000       0.31666667       0.18333333 </v>
   <v>       0.48333333       0.31666667       0.18333333 </v>
   <v>       0.35000000       0.35000000       0.18333333 </v>
   <v>       0.38333333       0.35000000       0.18333333 </v>
   <v>       0.41666667       0.35000000       0.18333333 </v>
   <v>       0.45000000       0.35000000       0.18333333 </v>
   <v>       0.48333333       0.35000000       0.18333333 </v>
   <v>       0.38333333       0.38333333       0.18333333 </v>
   <v>       0.41666667       0.38333333       0.18333333 </v>
   <v>       0.45000000       0.38333333       0.18333333 </v>
   <v>       0.48333333       0.38333333       0.18333333 </v>
   <v>       0.41666667       0.41666667       0.18333333 </v>
   <v>       0.45000000       0.41666667       0.18333333 </v>
   <v>       0.48333333       0.41666667       0.18333333 </v>
   <v>       0.45000000       0.45000000       0.18333333 </v>
   <v>       0.48333333       0.45000000       0.18333333 </v>
   <v>       0.48333333       0.48333333       0.18333333 </v>
   <v>       0.21666667       0.21666667       0.21666667 </v>
   <v>       0.25000000       0.21666667       0.21666667 </v>
   <v>       0.28333333       0.21666667       0.21666667 </v>
   <v>       0.31666667       0.21666667       0.21666667 </v>
   <v>       0.35000000       0.21666667       0.21666667 </v>
   <v>       0.38333333       0.21666667       0.21666667 </v>
   <v>       0.41666667       0.21666667       0.21666667 </v>
   <v>       0.45000000       0.21666667       0.21666667 </v>
   <v>       0.48333333       0.21666667       0.21666667 </v>
   <v>       0.25000000       0.25000000       0.21666667 </v>
   <v>       0.28333333       0.25000000       0.21666667 </v>
   <v>       0.31666667       0.25000000       0.21666667 </v>
   <v>       0.35000000       0.25000000       0.21666667 </v>
   <v>       0.38333333       0.25000000       0.21666667 </v>
   <v>       0.41666667       0.25000000       0.21666667 </v>
   <v>       0.45000000       0.25000000       0.21666667 </v>
   <v>       0.48333333       0.25000000       0.21666667 </v>
   <v>       0.28333333       0.28333333       0.21666667 </v>
   <v>       0.31666667       0.28333333       0.21666667 </v>
   <v>       0.35000000       0.28333333       0.21666667 </v>
   <v>       0.38333333       0.28333333       0.21666667 </v>
   <v>       0.41666667       0.28333333       0.21666667 </v>
   <v>       0.45000000       0.28333333       0.21666667 </v>
   <v>       0.48333333       0.28333333       0.21666667 </v>
   <v>       0.31666667       0.31666667       0.21666667 </v>
   <v>       0.35000000       0.31666667       0.21666667 </v>
   <v>       0.38333333       0.31666667       0.21666667 </v>
   <v>       0.41666667       0.31666667       0.21666667 </v>
   <v>       0.45000000       0.31666667       0.21666667 </v>
   <v>       0.48333333       0.31666667       0.21666667 </v>
   <v>       0.35000000       0.35000000       0.21666667 </v>
   <v>       0.38333333       0.35000000       0.21666667 </v>
   <v>       0.41666667       0.35000000       0.21666667 </v>
   <v>       0.45000000       0.35000000       0.21666667 </v>
   <v>       0.48333333       0.35000000       0.21666667 </v>
   <v>       0.38333333       0.38333333       0.21666667 </v>
   <v>       0.41666667       0.38333333       0.21666667 </v>
   <v>       0.45000000       0.38333333       0.21666667 </v>
   <v>       0.48333333       0.38333333       0.21666667 </v>
   <v>       0.41666667       0.41666667       0.21666667 </v>
   <v>       0.45000000       0.41666667       0.21666667 </v>
   <v>       0.48333333       0.41666667       0.21666667 </v>
   <v>       0.45000000       0.45000000       0.21666667 </v>
   <v>       0.48333333       0.45000000       0.21666667 </v>
   <v>       0.48333333       0.48333333       0.21666667 </v>
   <v>       0.25000000       0.25000000       0.25000000 </v>
   <v>       0.28333333       0.25000000       0.25000000 </v>
   <v>       0.31666667       0.25000000       0.25000000 </v>
   <v>       0.35000000       0.25000000       0.25000000 </v>
   <v>       0.38333333       0.25000000       0.25000000 </v>
   <v>       0.41666667       0.25000000       0.25000000 </v>
   <v>       0.45000000       0.25000000       0.25000000 </v>
   <v>       0.48333333       0.25000000       0.25000000 </v>
   <v>       0.28333333       0.28333333       0.25000000 </v>
   <v>       0.31666667       0.28333333       0.25000000 </v>
   <v>       0.35000000       0.28333333       0.25000000 </v>
   <v>       0.38333333       0.28333333       0.25000000 </v>
   <v>       0.41666667       0.28333333       0.25000000 </v>
   <v>       0.45000000       0.28333333       0.25000000 </v>
   <v>       0.48333333       0.28333333       0.25000000 </v>
   <v>       0.31666667       0.31666667       0.25000000 </v>
   <v>       0.35000000       0.31666667       0.25000000 </v>
   <v>       0.38333333       0.31666667       0.25000000 </v>
   <v>       0.41666667       0.31666667       0.25000000 </v>
   <v>       0.45000000       0.31666667       0.25000000 </v>
   <v>       0.48333333       0.31666667       0.25000000 </v>
   <v>       0.35000000       0.35000000       0.25000000 </v>
   <v>       0.38333333       0.35000000       0.25000000 </v>
   <v>       0.41666667       0.35000000       0.25000000 </v>
   <v>       0.45000000       0.35000000       0.25000000 </v>
   <v>       0.48333333       0.35000000       0.25000000 </v>
   <v>       0.38333333       0.38333333       0.25000000 </v>
   <v>       0.41666667       0.38333333       0.25000000 </v>
   <v>       0.45000000       0.38333333       0.25000000 </v>
   <v>       0.48333333       0.38333333       0.25000000 </v>
   <v>       0.41666667       0.41666667       0.25000000 </v>
   <v>       0.45000000       0.41666667       0.25000000 </v>
   <v>       0.48333333       0.41666667       0.25000000 </v>
   <v>       0.45000000       0.45000000       0.25000000 </v>
   <v>       0.48333333       0.45000000       0.25000000 </v>
   <v>       0.48333333       0.48333333       0.25000000 </v>
   <v>       0.28333333       0.28333333       0.28333333 </v>
   <v>       0.31666667       0.28333333       0.28333333 </v>
   <v>       0.35000000       0.28333333       0.28333333 </v>
   <v>       0.38333333       0.28333333       0.28333333 </v>
   <v>       0.41666667       0.28333333       0.28333333 </v>
   <v>       0.45000000       0.28333333       0.28333333 </v>
   <v>       0.48333333       0.28333333       0.28333333 </v>
   <v>       0.31666667       0.31666667       0.28333333 </v>
   <v>       0.35000000       0.31666667       0.28333333 </v>
   <v>       0.38333333       0.31666667       0.28333333 </v>
   <v>       0.41666667       0.31666667       0.28333333 </v>
   <v>       0.45000000       0.31666667       0.28333333 </v>
   <v>       0.48333333       0.31666667       0.28333333 </v>
   <v>       0.35000000       0.35000000       0.28333333 </v>
   <v>       0.38333333       0.35000000       0.28333333 </v>
   <v>       0.41666667       0.35000000       0.28333333 </v>
   <v>       0.45000000       0.35000000       0.28333333 </v>
   <v>       0.48333333       0.35000000       0.28333333 </v>
   <v>       0.38333333       0.38333333       0.28333333 </v>
   <v>       0.41666667       0.38333333       0.28333333 </v>
   <v>       0.45000000       0.38333333       0.28333333 </v>
   <v>       0.48333333       0.38333333       0.28333333 </v>
   <v>       0.41666667       0.41666667       0.28333333 </v>
   <v>       0.45000000       0.41666667       0.28333333 </v>
   <v>       0.48333333       0.41666667       0.28333333 </v>
   <v>       0.45000000       0.45000000       0.28333333 </v>
   <v>       0.48333333       0.45000000       0.28333333 </v>
   <v>       0.48333333       0.48333333       0.28333333 </v>
   <v>       0.31666667       0.31666667       0.31666667 </v>
   <v>       0.35000000       0.31666667       0.31666667 </v>
   <v>       0.38333333       0.31666667       0.31666667 </v>
   <v>       0.41666667       0.31666667       0.31666667 </v>
   <v>       0.45000000       0.31666667       0.31666667 </v>
   <v>       0.48333333       0.31666667       0.31666667 </v>
   <v>       0.35000000       0.35000000       0.31666667 </v>
   <v>       0.38333333       0.35000000       0.31666667 </v>
   <v>       0.41666667       0.35000000       0.31666667 </v>
   <v>       0.45000000       0.35000000       0.31666667 </v>
   <v>       0.48333333       0.35000000       0.31666667 </v>
   <v>       0.38333333       0.38333333       0.31666667 </v>
   <v>       0.41666667       0.38333333       0.31666667 </v>
   <v>       0.45000000       0.38333333       0.31666667 </v>
   <v>       0.48333333       0.38333333       0.31666667 </v>
   <v>       0.41666667       0.41666667       0.31666667 </v>
   <v>       0.45000000       0.41666667       0.31666667 </v>
   <v>       0.48333333       0.41666667       0.31666667 </v>
   <v>       0.45000000       0.45000000       0.31666667 </v>
   <v>       0.48333333       0.45000000       0.31666667 </v>
   <v>       0.48333333       0.48333333       0.31666667 </v>
   <v>       0.35000000       0.35000000       0.35000000 </v>
   <v>       0.38333333       0.35000000       0.35000000 </v>
   <v>       0.41666667       0.35000000       0.35000000 </v>
   <v>       0.45000000       0.35000000       0.35000000 </v>
   <v>       0.48333333       0.35000000       0.35000000 </v>
   <v>       0.38333333       0.38333333       0.35000000 </v>
   <v>       0.41666667       0.38333333       0.35000000 </v>
   <v>       0.45000000       0.38333333       0.35000000 </v>
   <v>       0.48333333       0.38333333       0.35000000 </v>
   <v>       0.41666667       0.41666667       0.35000000 </v>
   <v>       0.45000000       0.41666667       0.35000000 </v>
   <v>       0.48333333       0.41666667       0.35000000 </v>
   <v>       0.45000000       0.45000000       0.35000000 </v>
   <v>       0.48333333       0.45000000       0.35000000 </v>
   <v>       0.48333333       0.48333333       0.35000000 </v>
   <v>       0.38333333       0.38333333       0.38333333 </v>
   <v>       0.41666667       0.38333333       0.38333333 </v>
   <v>       0.45000000       0.38333333       0.38333333 </v>
   <v>       0.48333333       0.38333333       0.38333333 </v>
   <v>       0.41666667       0.41666667       0.38333333 </v>
   <v>       0.45000000       0.41666667       0.38333333 </v>
   <v>       0.48333333       0.41666667       0.38333333 </v>
   <v>       0.45000000       0.45000000       0.38333333 </v>
   <v>       0.48333333       0.45000000       0.38333333 </v>
   <v>       0.48333333       0.48333333       0.38333333 </v>
   <v>       0.41666667       0.41666667       0.41666667 </v>
   <v>       0.45000000       0.41666667       0.41666667 </v>
   <v>       0.48333333       0.41666667       0.41666667 </v>
   <v>       0.45000000       0.45000000       0.41666667 </v>
   <v>       0.48333333       0.45000000       0.41666667 </v>
   <v>       0.48333333       0.48333333       0.41666667 </v>
   <v>       0.45000000       0.45000000       0.45000000 </v>
   <v>       0.48333333       0.45000000       0.45000000 </v>
   <v>       0.48333333       0.48333333       0.45000000 </v>
   <v>       0.48333333       0.48333333       0.48333333 </v>
  </varray>
  <varray name="weights" >
   <v>       0.00029630 </v>
   <v>       0.00088889 </v>
   <v>       0.00088889 </v>
   <v>       0.00088889 </v>
   <v>       0.00088889 </v>
   <v>       0.00088889 </v>
   <v>       0.00088889 </v>
   <v>       0.00088889 </v>
   <v>       0.00088889 </v>
   <v>       0.00088889 </v>
   <v>       0.00088889 </v>
   <v>       0.00088889 </v>
   <v>       0.00088889 </v>
   <v>       0.00088889 </v>
   <v>       0.00088889 </v>
   <v>       0.00088889 </v>
   <v>       0.00177778 </v>
   <v>       0.00177778 </v>
   <v>       0.00177778 </v>
   <v>       0.00177778 </v>
   <v>       0.00177778 </v>
   <v>       0.00177778 </v>
   <v>       0.00177778 </v>
   <v>       0.00177778 </v>
   <v>       0.00177778 </v>
   <v>       0.00177778 </v>
   <v>       0.00177778 </v>
   <v>       0.00177778 </v>
   <v>       0.00177778 </v>
   <v>       0.00088889 </v>
   <v>       0.00177778 </v>
   <v>       0.00177778 </v>
   <v>       0.00177778 </v>
   <v>       0.00177778 </v>
   <v>       0.00177778 </v>
   <v>       0.00177778 </v>
   <v>       0.00177778 </v>
   <v>       0.00177778 </v>
   <v>       0.00177778 </v>
   <v>       0.00177778 </v>
   <v>       0.00177778 </v>
   <v>       0.00177778 </v>
   <v>       0.00088889 </v>
   <v>       0.00177778 </v>
   <v>       0.00177778 </v>
   <v>       0.00177778 </v>
   <v>       0.00177778 </v>
   <v>       0.00177778 </v>
   <v>       0.00177778 </v>
   <v>       0.00177778 </v>
   <v>       0.00177778 </v>
   <v>       0.00177778 </v>
   <v>       0.00177778 </v>
   <v>       0.00177778 </v>
   <v>       0.00088889 </v>
   <v>       0.00177778 </v>
   <v>       0.00177778 </v>
   <v>       0.00177778 </v>
   <v>       0.00177778 </v>
   <v>       0.00177778 </v>
   <v>       0.00177778 </v>
   <v>       0.00177778 </v>
   <v>       0.00177778 </v>
   <v>       0.00177778 </v>
   <v>       0.00177778 </v>
   <v>       0.00088889 </v>
   <v>       0.00177778 </v>
   <v>       0.00177778 </v>
   <v>       0.00177778 </v>
   <v>       0.00177778 </v>
   <v>       0.00177778 </v>
   <v>       0.00177778 </v>
   <v>       0.00177778 </v>
   <v>       0.00177778 </v>
   <v>       0.00177778 </v>
   <v>       0.00088889 </v>
   <v>       0.00177778 </v>
   <v>       0.00177778 </v>
   <v>       0.00177778 </v>
   <v>       0.00177778 </v>
   <v>       0.00177778 </v>
   <v>       0.00177778 </v>
   <v>       0.00177778 </v>
   <v>       0.00177778 </v>
   <v>       0.00088889 </v>
   <v>       0.00177778 </v>
   <v>       0.00177778 </v>
   <v>       0.00177778 </v>
   <v>       0.00177778 </v>
   <v>       0.00177778 </v>
   <v>       0.00177778 </v>
   <v>       0.00177778 </v>
   <v>       0.00088889 </v>
   <v>       0.00177778 </v>
   <v>       0.00177778 </v>
   <v>       0.00177778 </v>
   <v>       0.00177778 </v>
   <v>       0.00177778 </v>
   <v>       0.00177778 </v>
   <v>       0.00088889 </v>
   <v>       0.00177778 </v>
   <v>       0.00177778 </v>
   <v>       0.00177778 </v>
   <v>       0.00177778 </v>
   <v>       0.00177778 </v>
   <v>       0.00088889 </v>
   <v>       0.00177778 </v>
   <v>       0.00177778 </v>
   <v>       0.00177778 </v>
   <v>       0.00177778 </v>
   <v>       0.00088889 </v>
   <v>       0.00177778 </v>
   <v>       0.00177778 </v>
   <v>       0.00177778 </v>
   <v>       0.00088889 </v>
   <v>       0.00177778 </v>
   <v>       0.00177778 </v>
   <v>       0.00088889 </v>
   <v>       0.00177778 </v>
   <v>       0.00088889 </v>
   <v>       0.00029630 </v>
   <v>       0.00088889 </v>
   <v>       0.00088889 </v>
   <v>       0.00088889 </v>
   <v>       0.00088889 </v>
   <v>       0.00088889 </v>
   <v>       0.00088889 </v>
   <v>       0.00088889 </v>
   <v>       0.00088889 </v>
   <v>       0.00088889 </v>
   <v>       0.00088889 </v>
   <v>       0.00088889 </v>
   <v>       0.00088889 </v>
   <v>       0.00088889 </v>
   <v>       0.00088889 </v>
   <v>       0.00177778 </v>
   <v>       0.00177778 </v>
   <v>       0.00177778 </v>
   <v>       0.00177778 </v>
   <v>       0.00177778 </v>
   <v>       0.00177778 </v>
   <v>       0.00177778 </v>
   <v>       0.00177778 </v>
   <v>       0.00177778 </v>
   <v>       0.00177778 </v>
   <v>       0.00177778 </v>
   <v>       0.00177778 </v>
   <v>       0.00088889 </v>
   <v>       0.00177778 </v>
   <v>       0.00177778 </v>
   <v>       0.00177778 </v>
   <v>       0.00177778 </v>
   <v>       0.00177778 </v>
   <v>       0.00177778 </v>
   <v>       0.00177778 </v>
   <v>       0.00177778 </v>
   <v>       0.00177778 </v>
   <v>       0.00177778 </v>
   <v>       0.00177778 </v>
   <v>       0.00088889 </v>
   <v>       0.00177778 </v>
   <v>       0.00177778 </v>
   <v>       0.00177778 </v>
   <v>       0.00177778 </v>
   <v>       0.00177778 </v>
   <v>       0.00177778 </v>
   <v>       0.00177778 </v>
   <v>       0.00177778 </v>
   <v>       0.00177778 </v>
   <v>       0.00177778 </v>
   <v>       0.00088889 </v>
   <v>       0.00177778 </v>
   <v>       0.00177778 </v>
   <v>       0.00177778 </v>
   <v>       0.00177778 </v>
   <v>       0.00177778 </v>
   <v>       0.00177778 </v>
   <v>       0.00177778 </v>
   <v>       0.00177778 </v>
   <v>       0.00177778 </v>
   <v>       0.00088889 </v>
   <v>       0.00177778 </v>
   <v>       0.00177778 </v>
   <v>       0.00177778 </v>
   <v>       0.00177778 </v>
   <v>       0.00177778 </v>
   <v>       0.00177778 </v>
   <v>       0.00177778 </v>
   <v>       0.00177778 </v>
   <v>       0.00088889 </v>
   <v>       0.00177778 </v>
   <v>       0.00177778 </v>
   <v>       0.00177778 </v>
   <v>       0.00177778 </v>
   <v>       0.00177778 </v>
   <v>       0.00177778 </v>
   <v>       0.00177778 </v>
   <v>       0.00088889 </v>
   <v>       0.00177778 </v>
   <v>       0.00177778 </v>
   <v>       0.00177778 </v>
   <v>       0.00177778 </v>
   <v>       0.00177778 </v>
   <v>       0.00177778 </v>
   <v>       0.00088889 </v>
   <v>       0.00177778 </v>
   <v>       0.00177778 </v>
   <v>       0.00177778 </v>
   <v>       0.00177778 </v>
   <v>       0.00177778 </v>
   <v>       0.00088889 </v>
   <v>       0.00177778 </v>
   <v>       0.00177778 </v>
   <v>       0.00177778 </v>
   <v>       0.00177778 </v>
   <v>       0.00088889 </v>
   <v>       0.00177778 </v>
   <v>       0.00177778 </v>
   <v>       0.00177778 </v>
   <v>       0.00088889 </v>
   <v>       0.00177778 </v>
   <v>       0.00177778 </v>
   <v>       0.00088889 </v>
   <v>       0.00177778 </v>
   <v>       0.00088889 </v>
   <v>       0.00029630 </v>
   <v>       0.00088889 </v>
   <v>       0.00088889 </v>
   <v>       0.00088889 </v>
   <v>       0.00088889 </v>
   <v>       0.00088889 </v>
   <v>       0.00088889 </v>
   <v>       0.00088889 </v>
   <v>       0.00088889 </v>
   <v>       0.00088889 </v>
   <v>       0.00088889 </v>
   <v>       0.00088889 </v>
   <v>       0.00088889 </v>
   <v>       0.00088889 </v>
   <v>       0.00177778 </v>
   <v>       0.00177778 </v>
   <v>       0.00177778 </v>
   <v>       0.00177778 </v>
   <v>       0.00177778 </v>
   <v>       0.00177778 </v>
   <v>       0.00177778 </v>
   <v>       0.00177778 </v>
   <v>       0.00177778 </v>
   <v>       0.00177778 </v>
   <v>       0.00177778 </v>
   <v>       0.00088889 </v>
   <v>       0.00177778 </v>
   <v>       0.00177778 </v>
   <v>       0.00177778 </v>
   <v>       0.00177778 </v>
   <v>       0.00177778 </v>
   <v>       0.00177778 </v>
   <v>       0.00177778 </v>
   <v>       0.00177778 </v>
   <v>       0.00177778 </v>
   <v>       0.00177778 </v>
   <v>       0.00088889 </v>
   <v>       0.00177778 </v>
   <v>       0.00177778 </v>
   <v>       0.00177778 </v>
   <v>       0.00177778 </v>
   <v>       0.00177778 </v>
   <v>       0.00177778 </v>
   <v>       0.00177778 </v>
   <v>       0.00177778 </v>
   <v>       0.00177778 </v>
   <v>       0.00088889 </v>
   <v>       0.00177778 </v>
   <v>       0.00177778 </v>
   <v>       0.00177778 </v>
   <v>       0.00177778 </v>
   <v>       0.00177778 </v>
   <v>       0.00177778 </v>
   <v>       0.00177778 </v>
   <v>       0.00177778 </v>
   <v>       0.00088889 </v>
   <v>       0.00177778 </v>
   <v>       0.00177778 </v>
   <v>       0.00177778 </v>
   <v>       0.00177778 </v>
   <v>       0.00177778 </v>
   <v>       0.00177778 </v>
   <v>       0.00177778 </v>
   <v>       0.00088889 </v>
   <v>       0.00177778 </v>
   <v>       0.00177778 </v>
   <v>       0.00177778 </v>
   <v>       0.00177778 </v>
   <v>       0.00177778 </v>
   <v>       0.00177778 </v>
   <v>       0.00088889 </v>
   <v>       0.00177778 </v>
   <v>       0.00177778 </v>
   <v>       0.00177778 </v>
   <v>       0.00177778 </v>
   <v>       0.00177778 </v>
   <v>       0.00088889 </v>
   <v>       0.00177778 </v>
   <v>       0.00177778 </v>
   <v>       0.00177778 </v>
   <v>       0.00177778 </v>
   <v>       0.00088889 </v>
   <v>       0.00177778 </v>
   <v>       0.00177778 </v>
   <v>       0.00177778 </v>
   <v>       0.00088889 </v>
   <v>       0.00177778 </v>
   <v>       0.00177778 </v>
   <v>       0.00088889 </v>
   <v>       0.00177778 </v>
   <v>       0.00088889 </v>
   <v>       0.00029630 </v>
   <v>       0.00088889 </v>
   <v>       0.00088889 </v>
   <v>       0.00088889 </v>
   <v>       0.00088889 </v>
   <v>       0.00088889 </v>
   <v>       0.00088889 </v>
   <v>       0.00088889 </v>
   <v>       0.00088889 </v>
   <v>       0.00088889 </v>
   <v>       0.00088889 </v>
   <v>       0.00088889 </v>
   <v>       0.00088889 </v>
   <v>       0.00177778 </v>
   <v>       0.00177778 </v>
   <v>       0.00177778 </v>
   <v>       0.00177778 </v>
   <v>       0.00177778 </v>
   <v>       0.00177778 </v>
   <v>       0.00177778 </v>
   <v>       0.00177778 </v>
   <v>       0.00177778 </v>
   <v>       0.00177778 </v>
   <v>       0.00088889 </v>
   <v>       0.00177778 </v>
   <v>       0.00177778 </v>
   <v>       0.00177778 </v>
   <v>       0.00177778 </v>
   <v>       0.00177778 </v>
   <v>       0.00177778 </v>
   <v>       0.00177778 </v>
   <v>       0.00177778 </v>
   <v>       0.00177778 </v>
   <v>       0.00088889 </v>
   <v>       0.00177778 </v>
   <v>       0.00177778 </v>
   <v>       0.00177778 </v>
   <v>       0.00177778 </v>
   <v>       0.00177778 </v>
   <v>       0.00177778 </v>
   <v>       0.00177778 </v>
   <v>       0.00177778 </v>
   <v>       0.00088889 </v>
   <v>       0.00177778 </v>
   <v>       0.00177778 </v>
   <v>       0.00177778 </v>
   <v>       0.00177778 </v>
   <v>       0.00177778 </v>
   <v>       0.00177778 </v>
   <v>       0.00177778 </v>
   <v>       0.00088889 </v>
   <v>       0.00177778 </v>
   <v>       0.00177778 </v>
   <v>       0.00177778 </v>
   <v>       0.00177778 </v>
   <v>       0.00177778 </v>
   <v>       0.00177778 </v>
   <v>       0.00088889 </v>
   <v>       0.00177778 </v>
   <v>       0.00177778 </v>
   <v>       0.00177778 </v>
   <v>       0.00177778 </v>
   <v>       0.00177778 </v>
   <v>       0.00088889 </v>
   <v>       0.00177778 </v>
   <v>       0.00177778 </v>
   <v>       0.00177778 </v>
   <v>       0.00177778 </v>
   <v>       0.00088889 </v>
   <v>       0.00177778 </v>
   <v>       0.00177778 </v>
   <v>       0.00177778 </v>
   <v>       0.00088889 </v>
   <v>       0.00177778 </v>
   <v>       0.00177778 </v>
   <v>       0.00088889 </v>
   <v>       0.00177778 </v>
   <v>       0.00088889 </v>
   <v>       0.00029630 </v>
   <v>       0.00088889 </v>
   <v>       0.00088889 </v>
   <v>       0.00088889 </v>
   <v>       0.00088889 </v>
   <v>       0.00088889 </v>
   <v>       0.00088889 </v>
   <v>       0.00088889 </v>
   <v>       0.00088889 </v>
   <v>       0.00088889 </v>
   <v>       0.00088889 </v>
   <v>       0.00088889 </v>
   <v>       0.00177778 </v>
   <v>       0.00177778 </v>
   <v>       0.00177778 </v>
   <v>       0.00177778 </v>
   <v>       0.00177778 </v>
   <v>       0.00177778 </v>
   <v>       0.00177778 </v>
   <v>       0.00177778 </v>
   <v>       0.00177778 </v>
   <v>       0.00088889 </v>
   <v>       0.00177778 </v>
   <v>       0.00177778 </v>
   <v>       0.00177778 </v>
   <v>       0.00177778 </v>
   <v>       0.00177778 </v>
   <v>       0.00177778 </v>
   <v>       0.00177778 </v>
   <v>       0.00177778 </v>
   <v>       0.00088889 </v>
   <v>       0.00177778 </v>
   <v>       0.00177778 </v>
   <v>       0.00177778 </v>
   <v>       0.00177778 </v>
   <v>       0.00177778 </v>
   <v>       0.00177778 </v>
   <v>       0.00177778 </v>
   <v>       0.00088889 </v>
   <v>       0.00177778 </v>
   <v>       0.00177778 </v>
   <v>       0.00177778 </v>
   <v>       0.00177778 </v>
   <v>       0.00177778 </v>
   <v>       0.00177778 </v>
   <v>       0.00088889 </v>
   <v>       0.00177778 </v>
   <v>       0.00177778 </v>
   <v>       0.00177778 </v>
   <v>       0.00177778 </v>
   <v>       0.00177778 </v>
   <v>       0.00088889 </v>
   <v>       0.00177778 </v>
   <v>       0.00177778 </v>
   <v>       0.00177778 </v>
   <v>       0.00177778 </v>
   <v>       0.00088889 </v>
   <v>       0.00177778 </v>
   <v>       0.00177778 </v>
   <v>       0.00177778 </v>
   <v>       0.00088889 </v>
   <v>       0.00177778 </v>
   <v>       0.00177778 </v>
   <v>       0.00088889 </v>
   <v>       0.00177778 </v>
   <v>       0.00088889 </v>
   <v>       0.00029630 </v>
   <v>       0.00088889 </v>
   <v>       0.00088889 </v>
   <v>       0.00088889 </v>
   <v>       0.00088889 </v>
   <v>       0.00088889 </v>
   <v>       0.00088889 </v>
   <v>       0.00088889 </v>
   <v>       0.00088889 </v>
   <v>       0.00088889 </v>
   <v>       0.00088889 </v>
   <v>       0.00177778 </v>
   <v>       0.00177778 </v>
   <v>       0.00177778 </v>
   <v>       0.00177778 </v>
   <v>       0.00177778 </v>
   <v>       0.00177778 </v>
   <v>       0.00177778 </v>
   <v>       0.00177778 </v>
   <v>       0.00088889 </v>
   <v>       0.00177778 </v>
   <v>       0.00177778 </v>
   <v>       0.00177778 </v>
   <v>       0.00177778 </v>
   <v>       0.00177778 </v>
   <v>       0.00177778 </v>
   <v>       0.00177778 </v>
   <v>       0.00088889 </v>
   <v>       0.00177778 </v>
   <v>       0.00177778 </v>
   <v>       0.00177778 </v>
   <v>       0.00177778 </v>
   <v>       0.00177778 </v>
   <v>       0.00177778 </v>
   <v>       0.00088889 </v>
   <v>       0.00177778 </v>
   <v>       0.00177778 </v>
   <v>       0.00177778 </v>
   <v>       0.00177778 </v>
   <v>       0.00177778 </v>
   <v>       0.00088889 </v>
   <v>       0.00177778 </v>
   <v>       0.00177778 </v>
   <v>       0.00177778 </v>
   <v>       0.00177778 </v>
   <v>       0.00088889 </v>
   <v>       0.00177778 </v>
   <v>       0.00177778 </v>
   <v>       0.00177778 </v>
   <v>       0.00088889 </v>
   <v>       0.00177778 </v>
   <v>       0.00177778 </v>
   <v>       0.00088889 </v>
   <v>       0.00177778 </v>
   <v>       0.00088889 </v>
   <v>       0.00029630 </v>
   <v>       0.00088889 </v>
   <v>       0.00088889 </v>
   <v>       0.00088889 </v>
   <v>       0.00088889 </v>
   <v>       0.00088889 </v>
   <v>       0.00088889 </v>
   <v>       0.00088889 </v>
   <v>       0.00088889 </v>
   <v>       0.00088889 </v>
   <v>       0.00177778 </v>
   <v>       0.00177778 </v>
   <v>       0.00177778 </v>
   <v>       0.00177778 </v>
   <v>       0.00177778 </v>
   <v>       0.00177778 </v>
   <v>       0.00177778 </v>
   <v>       0.00088889 </v>
   <v>       0.00177778 </v>
   <v>       0.00177778 </v>
   <v>       0.00177778 </v>
   <v>       0.00177778 </v>
   <v>       0.00177778 </v>
   <v>       0.00177778 </v>
   <v>       0.00088889 </v>
   <v>       0.00177778 </v>
   <v>       0.00177778 </v>
   <v>       0.00177778 </v>
   <v>       0.00177778 </v>
   <v>       0.00177778 </v>
   <v>       0.00088889 </v>
   <v>       0.00177778 </v>
   <v>       0.00177778 </v>
   <v>       0.00177778 </v>
   <v>       0.00177778 </v>
   <v>       0.00088889 </v>
   <v>       0.00177778 </v>
   <v>       0.00177778 </v>
   <v>       0.00177778 </v>
   <v>       0.00088889 </v>
   <v>       0.00177778 </v>
   <v>       0.00177778 </v>
   <v>       0.00088889 </v>
   <v>       0.00177778 </v>
   <v>       0.00088889 </v>
   <v>       0.00029630 </v>
   <v>       0.00088889 </v>
   <v>       0.00088889 </v>
   <v>       0.00088889 </v>
   <v>       0.00088889 </v>
   <v>       0.00088889 </v>
   <v>       0.00088889 </v>
   <v>       0.00088889 </v>
   <v>       0.00088889 </v>
   <v>       0.00177778 </v>
   <v>       0.00177778 </v>
   <v>       0.00177778 </v>
   <v>       0.00177778 </v>
   <v>       0.00177778 </v>
   <v>       0.00177778 </v>
   <v>       0.00088889 </v>
   <v>       0.00177778 </v>
   <v>       0.00177778 </v>
   <v>       0.00177778 </v>
   <v>       0.00177778 </v>
   <v>       0.00177778 </v>
   <v>       0.00088889 </v>
   <v>       0.00177778 </v>
   <v>       0.00177778 </v>
   <v>       0.00177778 </v>
   <v>       0.00177778 </v>
   <v>       0.00088889 </v>
   <v>       0.00177778 </v>
   <v>       0.00177778 </v>
   <v>       0.00177778 </v>
   <v>       0.00088889 </v>
   <v>       0.00177778 </v>
   <v>       0.00177778 </v>
   <v>       0.00088889 </v>
   <v>       0.00177778 </v>
   <v>       0.00088889 </v>
   <v>       0.00029630 </v>
   <v>       0.00088889 </v>
   <v>       0.00088889 </v>
   <v>       0.00088889 </v>
   <v>       0.00088889 </v>
   <v>       0.00088889 </v>
   <v>       0.00088889 </v>
   <v>       0.00088889 </v>
   <v>       0.00177778 </v>
   <v>       0.00177778 </v>
   <v>       0.00177778 </v>
   <v>       0.00177778 </v>
   <v>       0.00177778 </v>
   <v>       0.00088889 </v>
   <v>       0.00177778 </v>
   <v>       0.00177778 </v>
   <v>       0.00177778 </v>
   <v>       0.00177778 </v>
   <v>       0.00088889 </v>
   <v>       0.00177778 </v>
   <v>       0.00177778 </v>
   <v>       0.00177778 </v>
   <v>       0.00088889 </v>
   <v>       0.00177778 </v>
   <v>       0.00177778 </v>
   <v>       0.00088889 </v>
   <v>       0.00177778 </v>
   <v>       0.00088889 </v>
   <v>       0.00029630 </v>
   <v>       0.00088889 </v>
   <v>       0.00088889 </v>
   <v>       0.00088889 </v>
   <v>       0.00088889 </v>
   <v>       0.00088889 </v>
   <v>       0.00088889 </v>
   <v>       0.00177778 </v>
   <v>       0.00177778 </v>
   <v>       0.00177778 </v>
   <v>       0.00177778 </v>
   <v>       0.00088889 </v>
   <v>       0.00177778 </v>
   <v>       0.00177778 </v>
   <v>       0.00177778 </v>
   <v>       0.00088889 </v>
   <v>       0.00177778 </v>
   <v>       0.00177778 </v>
   <v>       0.00088889 </v>
   <v>       0.00177778 </v>
   <v>       0.00088889 </v>
   <v>       0.00029630 </v>
   <v>       0.00088889 </v>
   <v>       0.00088889 </v>
   <v>       0.00088889 </v>
   <v>       0.00088889 </v>
   <v>       0.00088889 </v>
   <v>       0.00177778 </v>
   <v>       0.00177778 </v>
   <v>       0.00177778 </v>
   <v>       0.00088889 </v>
   <v>       0.00177778 </v>
   <v>       0.00177778 </v>
   <v>       0.00088889 </v>
   <v>       0.00177778 </v>
   <v>       0.00088889 </v>
   <v>       0.00029630 </v>
   <v>       0.00088889 </v>
   <v>       0.00088889 </v>
   <v>       0.00088889 </v>
   <v>       0.00088889 </v>
   <v>       0.00177778 </v>
   <v>       0.00177778 </v>
   <v>       0.00088889 </v>
   <v>       0.00177778 </v>
   <v>       0.00088889 </v>
   <v>       0.00029630 </v>
   <v>       0.00088889 </v>
   <v>       0.00088889 </v>
   <v>       0.00088889 </v>
   <v>       0.00177778 </v>
   <v>       0.00088889 </v>
   <v>       0.00029630 </v>
   <v>       0.00088889 </v>
   <v>       0.00088889 </v>
   <v>       0.00029630 </v>
  </varray>
 </kpoints>
 <parameters>
  <separator name="general" >
   <i type="string" name="SYSTEM">unknown system</i>
   <i type="logical" name="LCOMPAT"> F  </i>
  </separator>
  <separator name="electronic" >
   <i type="string" name="PREC">accura</i>
   <i name="ENMAX">    300.00000000</i>
   <i name="ENAUG">    291.05200000</i>
   <i name="EDIFF">      0.00000001</i>
   <i type="int" name="IALGO">    38</i>
   <i type="int" name="IWAVPR">    11</i>
   <i type="int" name="NBANDS">    12</i>
   <i type="int" name="NBANDSLOW">    -1</i>
   <i type="int" name="NBANDSHIGH">    -1</i>
   <i name="NELECT">     12.00000000</i>
   <i type="int" name="TURBO">     0</i>
   <i type="int" name="IRESTART">     0</i>
   <i type="int" name="NREBOOT">     0</i>
   <i type="int" name="NMIN">     0</i>
   <i name="EREF">      0.00000000</i>
   <separator name="electronic smearing" >
    <i type="int" name="ISMEAR">     1</i>
    <i name="SIGMA">      0.20000000</i>
    <i name="KSPACING">      0.50000000</i>
    <i type="logical" name="KGAMMA"> T  </i>
    <i type="logical" name="KBLOWUP"> T  </i>
   </separator>
   <separator name="electronic projectors" >
    <i type="logical" name="LREAL"> F  </i>
    <v name="ROPT">      0.00000000</v>
    <i type="int" name="LMAXPAW">  -100</i>
    <i type="int" name="LMAXMIX">     2</i>
    <i type="logical" name="NLSPLINE"> F  </i>
   </separator>
   <separator name="electronic startup" >
    <i type="int" name="ISTART">     0</i>
    <i type="int" name="ICHARG">     2</i>
    <i type="int" name="INIWAV">     1</i>
   </separator>
   <separator name="electronic spin" >
    <i type="int" name="ISPIN">     1</i>
    <i type="logical" name="LNONCOLLINEAR"> F  </i>
    <v name="MAGMOM">      1.00000000      1.00000000      1.00000000      1.00000000</v>
    <i name="NUPDOWN">     -1.00000000</i>
    <i type="logical" name="LSORBIT"> F  </i>
    <v name="SAXIS">      0.00000000      0.00000000      1.00000000</v>
    <i type="logical" name="LSPIRAL"> F  </i>
    <v name="QSPIRAL">      0.00000000      0.00000000      0.00000000</v>
    <i type="logical" name="LZEROZ"> F  </i>
   </separator>
   <separator name="electronic exchange-correlation" >
    <i type="logical" name="LASPH"> F  </i>
    <i type="logical" name="LMETAGGA"> F  </i>
   </separator>
   <separator name="electronic convergence" >
    <i type="int" name="NELM">   300</i>
    <i type="int" name="NELMDL">    -5</i>
    <i type="int" name="NELMIN">     5</i>
    <i name="ENINI">    300.00000000</i>
    <separator name="electronic convergence detail" >
     <i type="logical" name="LDIAG"> T  </i>
     <i type="logical" name="LSUBROT"> F  </i>
     <i name="WEIMIN">      0.00100000</i>
     <i name="EBREAK">      0.00000000</i>
     <i name="DEPER">      0.30000000</i>
     <i type="int" name="NRMM">     4</i>
     <i name="TIME">      0.40000000</i>
    </separator>
   </separator>
   <separator name="electronic mixer" >
    <i name="AMIX">      0.40000000</i>
    <i name="BMIX">      1.00000000</i>
    <i name="AMIN">      0.10000000</i>
    <i name="AMIX_MAG">      1.60000000</i>
    <i name="BMIX_MAG">      1.00000000</i>
    <separator name="electronic mixer details" >
     <i type="int" name="IMIX">     4</i>
     <i type="logical" name="MIXFIRST"> F  </i>
     <i type="int" name="MAXMIX">   -45</i>
     <i name="WC">    100.00000000</i>
     <i type="int" name="INIMIX">     1</i>
     <i type="int" name="MIXPRE">     1</i>
     <i type="int" name="MREMOVE">     5</i>
    </separator>
   </separator>
   <separator name="electronic dipolcorrection" >
    <i type="logical" name="LDIPOL"> F  </i>
    <i type="logical" name="LMONO"> F  </i>
    <i type="int" name="IDIPOL">     0</i>
    <i name="EPSILON">      1.00000000</i>
    <v name="DIPOL">   -100.00000000   -100.00000000   -100.00000000</v>
    <i name="EFIELD">      0.00000000</i>
   </separator>
  </separator>
  <separator name="grids" >
   <i type="int" name="NGX">    24</i>
   <i type="int" name="NGY">    24</i>
   <i type="int" name="NGZ">    24</i>
   <i type="int" name="NGXF">    48</i>
   <i type="int" name="NGYF">    48</i>
   <i type="int" name="NGZF">    48</i>
   <i type="logical" name="ADDGRID"> T  </i>
  </separator>
  <separator name="ionic" >
   <i type="int" name="NSW">   500</i>
   <i type="int" name="IBRION">     2</i>
   <i type="int" name="MDALGO">     0</i>
   <i type="int" name="ISIF">     2</i>
   <i name="PSTRESS">      0.00000000</i>
   <i name="EDIFFG">     -0.00000001</i>
   <i type="int" name="NFREE">     1</i>
   <i name="POTIM">      0.50000000</i>
   <i name="SMASS">     -3.00000000</i>
   <i name="SCALEE">      1.00000000</i>
  </separator>
  <separator name="ionic md" >
   <i name="TEBEG">      0.00010000</i>
   <i name="TEEND">      0.00010000</i>
   <i type="int" name="NBLOCK">     1</i>
   <i type="int" name="KBLOCK">   500</i>
   <i type="int" name="NPACO">   256</i>
   <i name="APACO">     10.00000000</i>
  </separator>
  <separator name="symmetry" >
   <i type="int" name="ISYM">     2</i>
   <i name="SYMPREC">      0.00001000</i>
  </separator>
  <separator name="dos" >
   <i type="int" name="LORBIT">     0</i>
   <v name="RWIGS">     -1.00000000</v>
   <i type="int" name="NEDOS">   301</i>
   <i name="EMIN">     10.00000000</i>
   <i name="EMAX">    -10.00000000</i>
   <i name="EFERMI">      0.00000000</i>
  </separator>
  <separator name="writing" >
   <i type="int" name="NWRITE">     2</i>
   <i type="logical" name="LWAVE"> F  </i>
   <i type="logical" name="LDOWNSAMPLE"> F  </i>
   <i type="logical" name="LCHARG"> F  </i>
   <i type="logical" name="LPARD"> F  </i>
   <i type="logical" name="LVTOT"> F  </i>
   <i type="logical" name="LVHAR"> F  </i>
   <i type="logical" name="LELF"> F  </i>
   <i type="logical" name="LOPTICS"> F  </i>
   <v name="STM">      0.00000000      0.00000000      0.00000000      0.00000000      0.00000000      0.00000000      0.00000000</v>
  </separator>
  <separator name="performance" >
   <i type="int" name="NPAR">     4</i>
   <i type="int" name="NSIM">     4</i>
   <i type="int" name="NBLK">    -1</i>
   <i type="logical" name="LPLANE"> T  </i>
   <i type="logical" name="LSCALAPACK"> T  </i>
   <i type="logical" name="LSCAAWARE"> F  </i>
   <i type="logical" name="LSCALU"> F  </i>
   <i type="logical" name="LASYNC"> F  </i>
   <i type="logical" name="LORBITALREAL"> F  </i>
  </separator>
  <separator name="miscellaneous" >
   <i type="int" name="IDIOT">     3</i>
   <i type="int" name="PHON_NSTRUCT">    -1</i>
   <i type="logical" name="LMUSIC"> F  </i>
   <v name="POMASS">     26.98100000</v>
   <v name="DARWINR">      0.00000000</v>
   <v name="DARWINV">      1.00000000</v>
   <i type="logical" name="LCORR"> T  </i>
  </separator>
  <i type="logical" name="GGA_COMPAT"> T  </i>
  <i type="logical" name="LBERRY"> F  </i>
  <i type="int" name="ICORELEVEL">     0</i>
  <i type="logical" name="LDAU"> F  </i>
  <i type="int" name="I_CONSTRAINED_M">     0</i>
  <separator name="electronic exchange-correlation" >
   <i type="string" name="GGA">--</i>
   <i type="int" name="VOSKOWN">     0</i>
   <i type="logical" name="LHFCALC"> F  </i>
   <i type="string" name="PRECFOCK"></i>
   <i type="logical" name="LSYMGRAD"> F  </i>
   <i type="logical" name="LHFONE"> F  </i>
   <i type="logical" name="LRHFCALC"> F  </i>
   <i type="logical" name="LTHOMAS"> F  </i>
   <i type="logical" name="LMODELHF"> F  </i>
   <i type="logical" name="LFOCKACE"> F  </i>
   <i name="ENCUT4O">     -1.00000000</i>
   <i type="int" name="EXXOEP">     0</i>
   <i type="int" name="FOURORBIT">     0</i>
   <i name="AEXX">      0.00000000</i>
   <i name="HFALPHA">      0.00000000</i>
   <i name="MCALPHA">      0.00000000</i>
   <i name="ALDAX">      1.00000000</i>
   <i name="AGGAX">      1.00000000</i>
   <i name="ALDAC">      1.00000000</i>
   <i name="AGGAC">      1.00000000</i>
   <i type="int" name="NKREDX">     1</i>
   <i type="int" name="NKREDY">     1</i>
   <i type="int" name="NKREDZ">     1</i>
   <i type="logical" name="SHIFTRED"> F  </i>
   <i type="logical" name="ODDONLY"> F  </i>
   <i type="logical" name="EVENONLY"> F  </i>
   <i type="int" name="LMAXFOCK">     0</i>
   <i type="int" name="NMAXFOCKAE">     0</i>
   <i type="logical" name="LFOCKAEDFT"> F  </i>
   <i name="HFSCREEN">      0.00000000</i>
   <i name="HFSCREENC">      0.00000000</i>
   <i type="int" name="NBANDSGWLOW">     0</i>
  </separator>
  <separator name="vdW DFT" >
   <i type="logical" name="LUSE_VDW"> F  </i>
   <i name="Zab_VDW">     -0.84910000</i>
   <i name="PARAM1">      0.12340000</i>
   <i name="PARAM2">      1.00000000</i>
   <i name="PARAM3">      0.00000000</i>
  </separator>
  <separator name="model GW" >
   <i type="int" name="MODEL_GW">     0</i>
   <i name="MODEL_EPS0">      8.74302407</i>
   <i name="MODEL_ALPHA">      1.00000000</i>
  </separator>
  <separator name="linear response parameters" >
   <i type="logical" name="LEPSILON"> F  </i>
   <i type="logical" name="LRPA"> F  </i>
   <i type="logical" name="LNABLA"> F  </i>
   <i type="logical" name="LVEL"> F  </i>
   <i name="CSHIFT">      0.10000000</i>
   <i name="OMEGAMAX">     -1.00000000</i>
   <i name="DEG_THRESHOLD">      0.00200000</i>
   <i name="RTIME">     -0.10000000</i>
   <i name="WPLASMAI">      0.00000000</i>
   <v name="DFIELD">      0.00000000      0.00000000      0.00000000</v>
   <v name="WPLASMA">      0.00000000      0.00000000      0.00000000      0.00000000      0.00000000      0.00000000      0.00000000      0.00000000      0.00000000</v>
  </separator>
  <separator name="orbital magnetization" >
   <i type="logical" name="NUCIND"> F  </i>
   <v name="MAGPOS">      0.00000000      0.00000000      0.00000000</v>
   <i type="logical" name="LNICSALL"> T  </i>
   <i type="logical" name="ORBITALMAG"> F  </i>
   <i type="logical" name="LMAGBLOCH"> F  </i>
   <i type="logical" name="LCHIMAG"> F  </i>
   <i type="logical" name="LGAUGE"> T  </i>
   <i type="int" name="MAGATOM">     0</i>
   <v name="MAGDIPOL">      0.00000000      0.00000000      0.00000000</v>
   <v name="AVECCONST">      0.00000000      0.00000000      0.00000000</v>
  </separator>
  <separator name="response functions" >
   <i type="logical" name="LFINITE_TEMPERATURE"> F  </i>
   <i type="logical" name="LADDER"> F  </i>
   <i type="logical" name="LRPAFORCE"> F  </i>
   <i type="logical" name="LFXC"> F  </i>
   <i type="logical" name="LHARTREE"> T  </i>
   <i type="int" name="IBSE">     0</i>
   <v type="int" name="KPOINT">    -1     0     0     0</v>
   <i type="logical" name="LTCTC"> F  </i>
   <i type="logical" name="LTCTE"> F  </i>
   <i type="logical" name="LTETE"> F  </i>
   <i type="logical" name="LTRIPLET"> F  </i>
   <i type="logical" name="LFXCEPS"> F  </i>
   <i type="logical" name="LFXHEG"> F  </i>
   <i type="int" name="NATURALO">     2</i>
   <i type="logical" name="LHOLEGF"> F  </i>
   <i type="logical" name="L2ORDER"> F  </i>
   <i type="logical" name="LDMP1"> F  </i>
   <i type="logical" name="LMP2LT"> F  </i>
   <i type="logical" name="LSMP2LT"> F  </i>
   <i type="logical" name="LGWLF"> F  </i>
   <i name="ENCUTGW">     -2.00000000</i>
   <i name="ENCUTGWSOFT">     -2.00000000</i>
   <i name="ENCUTLF">     -1.00000000</i>
   <i type="logical" name="LESF_SPLINES"> F  </i>
   <i type="int" name="LMAXMP2">    -1</i>
   <i name="SCISSOR">      0.00000000</i>
   <i type="int" name="NOMEGA">     0</i>
   <i type="int" name="NOMEGAR">     0</i>
   <i type="int" name="NBANDSGW">    -1</i>
   <i type="int" name="NBANDSO">    -1</i>
   <i type="int" name="NBANDSV">    -1</i>
   <i type="int" name="NELMGW">     1</i>
   <i type="int" name="NELMHF">     1</i>
   <i type="int" name="DIM">     3</i>
   <i type="int" name="IESPILON">     4</i>
   <i type="int" name="ANTIRES">     0</i>
   <i name="OMEGAMAX">    -30.00000000</i>
   <i name="OMEGAMIN">    -30.00000000</i>
   <i name="OMEGATL">   -200.00000000</i>
   <i type="int" name="OMEGAGRID">     0</i>
   <i name="CSHIFT">     -0.10000000</i>
   <i type="logical" name="LSELFENERGY"> F  </i>
   <i type="logical" name="LSPECTRAL"> F  </i>
   <i type="logical" name="LSPECTRALGW"> F  </i>
   <i type="logical" name="LSINGLES"> F  </i>
   <i type="logical" name="LFERMIGW"> F  </i>
   <i type="logical" name="ODDONLYGW"> F  </i>
   <i type="logical" name="EVENONLYGW"> F  </i>
   <i type="int" name="NKREDLFX">     1</i>
   <i type="int" name="NKREDLFY">     1</i>
   <i type="int" name="NKREDLFZ">     1</i>
   <i type="int" name="MAXMEM">  2800</i>
   <i type="int" name="TELESCOPE">     0</i>
   <i type="int" name="NTAUPAR">    -1</i>
   <i type="int" name="NOMEGAPAR">    -1</i>
   <i name="DAMP_NEWTON">      0.80000001</i>
   <i name="LAMBDA">      1.00000000</i>
  </separator>
  <separator name="External order field" >
   <i name="OFIELD_KAPPA">      0.00000000</i>
   <v name="OFIELD_K">      0.00000000      0.00000000      0.00000000</v>
   <i name="OFIELD_Q6_NEAR">      0.00000000</i>
   <i name="OFIELD_Q6_FAR">      0.00000000</i>
   <i name="OFIELD_A">      0.00000000</i>
  </separator>
  <separator name="optional k-points parameters" >
   <i type="int" name="KPOINTS_OPT_MODE">     1</i>
   <i type="logical" name="LKPOINTS_OPT"> F  </i>
  </separator>
 </parameters>
 <atominfo>
  <atoms>       4 </atoms>
  <types>       1 </types>
  <array name="atoms" >
   <dimension dim="1">ion</dimension>
   <field type="string">element</field>
   <field type="int">atomtype</field>
   <set>
    <rc><c>Al</c><c>   1</c></rc>
    <rc><c>Al</c><c>   1</c></rc>
    <rc><c>Al</c><c>   1</c></rc>
    <rc><c>Al</c><c>   1</c></rc>
   </set>
  </array>
  <array name="atomtypes" >
   <dimension dim="1">type</dimension>
   <field type="int">atomspertype</field>
   <field type="string">element</field>
   <field>mass</field>
   <field>valence</field>
   <field type="string">pseudopotential</field>
   <set>
    <rc><c>   4</c><c>Al</c><c>     26.98100000</c><c>      3.00000000</c><c>  PAW_PBE Al 04Jan2001                  </c></rc>
   </set>
  </array>
 </atominfo>
 <structure name="initialpos" >
  <crystal>
   <varray name="basis" >
    <v>       3.87724703       0.00000000       0.00000000 </v>
    <v>       0.00000000       3.87724703       0.00000000 </v>
    <v>       0.00000000       0.00000000       3.87724703 </v>
   </varray>
   <i name="volume">     58.28682713 </i>
   <varray name="rec_basis" >
    <v>       0.25791496      -0.00000000       0.00000000 </v>
    <v>       0.00000000       0.25791496       0.00000000 </v>
    <v>      -0.00000000      -0.00000000       0.25791496 </v>
   </varray>
  </crystal>
  <varray name="positions" >
   <v>       0.00000000       0.00000000       0.00000000 </v>
   <v>       0.00000000       0.50000000       0.50000000 </v>
   <v>       0.50000000       0.00000000       0.50000000 </v>
   <v>       0.50000000       0.50000000       0.00000000 </v>
[...]
       <r>    2.9228    1.0000 </r>
       <r>    3.2324    1.0000 </r>
       <r>    4.3488    1.0000 </r>
       <r>    4.3488    1.0000 </r>
       <r>    4.9827    1.0000 </r>
       <r>    4.9827    1.0000 </r>
       <r>    6.0877    1.0000 </r>
       <r>    6.3916    1.0000 </r>
       <r>   19.4353    0.0000 </r>
       <r>   19.4353    0.0000 </r>
       <r>   19.9265    0.0000 </r>
       <r>   19.9265    0.0000 </r>
      </set>
      <set comment="kpoint 674">
       <r>    2.9020    1.0000 </r>
       <r>    3.8180    1.0000 </r>
       <r>    3.8180    1.0000 </r>
       <r>    4.3287    1.0000 </r>
       <r>    4.9618    1.0000 </r>
       <r>    5.4691    1.0000 </r>
       <r>    5.4691    1.0000 </r>
       <r>    6.3713    1.0000 </r>
       <r>   19.5327    0.0000 </r>
       <r>   19.9683    0.0000 </r>
       <r>   19.9684    0.0000 </r>
       <r>   20.2608    0.0000 </r>
      </set>
      <set comment="kpoint 675">
       <r>    3.1909    1.0000 </r>
       <r>    3.4973    1.0000 </r>
       <r>    4.0822    1.0000 </r>
       <r>    4.3086    1.0000 </r>
       <r>    4.9407    1.0000 </r>
       <r>    5.1661    1.0000 </r>
       <r>    5.7452    1.0000 </r>
       <r>    6.0470    1.0000 </r>
       <r>   19.7501    0.0000 </r>
       <r>   19.9207    0.0000 </r>
       <r>   20.3703    0.0000 </r>
       <r>   20.3726    0.0000 </r>
      </set>
      <set comment="kpoint 676">
       <r>    3.4767    1.0000 </r>
       <r>    3.7769    1.0000 </r>
       <r>    3.7769    1.0000 </r>
       <r>    4.0618    1.0000 </r>
       <r>    5.1453    1.0000 </r>
       <r>    5.4279    1.0000 </r>
       <r>    5.4279    1.0000 </r>
       <r>    5.7247    1.0000 </r>
       <r>   19.9984    0.0000 </r>
       <r>   20.2137    0.0000 </r>
       <r>   20.2137    0.0000 </r>
       <r>   20.4548    0.0000 </r>
      </set>
      <set comment="kpoint 677">
       <r>    3.1702    1.0000 </r>
       <r>    4.0618    1.0000 </r>
       <r>    4.0618    1.0000 </r>
       <r>    4.0618    1.0000 </r>
       <r>    5.1454    1.0000 </r>
       <r>    5.1454    1.0000 </r>
       <r>    5.1454    1.0000 </r>
       <r>    6.0267    1.0000 </r>
       <r>   20.2586    0.0000 </r>
       <r>   20.2586    0.0000 </r>
       <r>   20.2595    0.0000 </r>
       <r>   20.5683    0.0000 </r>
      </set>
      <set comment="kpoint 678">
       <r>    3.4560    1.0000 </r>
       <r>    3.7564    1.0000 </r>
       <r>    4.2684    1.0000 </r>
       <r>    4.2684    1.0000 </r>
       <r>    4.8988    1.0000 </r>
       <r>    4.8988    1.0000 </r>
       <r>    5.4074    1.0000 </r>
       <r>    5.7043    1.0000 </r>
       <r>   20.4186    0.0000 </r>
       <r>   20.4186    0.0000 </r>
       <r>   20.6955    0.0000 </r>
       <r>   20.7400    0.0000 </r>
      </set>
      <set comment="kpoint 679">
       <r>    3.7359    1.0000 </r>
       <r>    4.0210    1.0000 </r>
       <r>    4.0210    1.0000 </r>
       <r>    4.2483    1.0000 </r>
       <r>    4.8778    1.0000 </r>
       <r>    5.1039    1.0000 </r>
       <r>    5.1039    1.0000 </r>
       <r>    5.3868    1.0000 </r>
       <r>   20.6753    0.0000 </r>
       <r>   20.8302    0.0000 </r>
       <r>   20.8312    0.0000 </r>
       <r>   21.0521    0.0000 </r>
      </set>
      <set comment="kpoint 680">
       <r>    4.0007    1.0000 </r>
       <r>    4.2282    1.0000 </r>
       <r>    4.2282    1.0000 </r>
       <r>    4.2282    1.0000 </r>
       <r>    4.8568    1.0000 </r>
       <r>    4.8568    1.0000 </r>
       <r>    4.8568    1.0000 </r>
       <r>    5.0831    1.0000 </r>
       <r>   21.2453    0.0000 </r>
       <r>   21.2481    0.0000 </r>
       <r>   21.2587    0.0000 </r>
       <r>   21.2663    0.0000 </r>
      </set>
     </set>
    </set>
   </array>
  </eigenvalues>
  <separator name="orbital magnetization" >
   <v name="MAGDIPOLOUT">      0.00000000      0.00000000      0.00000000</v>
  </separator>
  <dos>
   <i name="efermi">      9.38248735 </i>
   <total>
    <array>
     <dimension dim="1">gridpoints</dimension>
     <dimension dim="2">spin</dimension>
     <field>energy</field>
     <field>total</field>
     <field>integrated</field>
     <set>
      <set comment="spin 1">
       <r>    -4.6524     0.0000     0.0000 </r>
       <r>    -4.5593     0.0000     0.0000 </r>
       <r>    -4.4662     0.0000     0.0000 </r>
       <r>    -4.3732     0.0000     0.0000 </r>
       <r>    -4.2801    -0.0000    -0.0000 </r>
       <r>    -4.1870    -0.0000    -0.0000 </r>
       <r>    -4.0940    -0.0000    -0.0000 </r>
       <r>    -4.0009    -0.0000    -0.0000 </r>
       <r>    -3.9079    -0.0000    -0.0000 </r>
       <r>    -3.8148    -0.0000    -0.0000 </r>
       <r>    -3.7217    -0.0000    -0.0000 </r>
       <r>    -3.6287    -0.0000    -0.0000 </r>
       <r>    -3.5356    -0.0000    -0.0000 </r>
       <r>    -3.4425    -0.0000    -0.0000 </r>
       <r>    -3.3495    -0.0000    -0.0000 </r>
       <r>    -3.2564    -0.0000    -0.0000 </r>
       <r>    -3.1634    -0.0000    -0.0000 </r>
       <r>    -3.0703    -0.0003    -0.0000 </r>
       <r>    -2.9772    -0.0013    -0.0001 </r>
       <r>    -2.8842    -0.0038    -0.0005 </r>
       <r>    -2.7911    -0.0039    -0.0009 </r>
       <r>    -2.6980     0.0111     0.0002 </r>
       <r>    -2.6050     0.0535     0.0051 </r>
       <r>    -2.5119     0.1153     0.0159 </r>
       <r>    -2.4189     0.1743     0.0321 </r>
       <r>    -2.3258     0.2190     0.0525 </r>
       <r>    -2.2327     0.2531     0.0760 </r>
       <r>    -2.1397     0.2821     0.1023 </r>
       <r>    -2.0466     0.3085     0.1310 </r>
       <r>    -1.9535     0.3330     0.1620 </r>
       <r>    -1.8605     0.3559     0.1951 </r>
       <r>    -1.7674     0.3775     0.2302 </r>
       <r>    -1.6744     0.3981     0.2673 </r>
       <r>    -1.5813     0.4177     0.3061 </r>
       <r>    -1.4882     0.4365     0.3468 </r>
       <r>    -1.3952     0.4549     0.3891 </r>
       <r>    -1.3021     0.4720     0.4330 </r>
       <r>    -1.2091     0.4891     0.4785 </r>
       <r>    -1.1160     0.5061     0.5256 </r>
       <r>    -1.0229     0.5208     0.5741 </r>
       <r>    -0.9299     0.5373     0.6241 </r>
       <r>    -0.8368     0.5533     0.6756 </r>
       <r>    -0.7437     0.5656     0.7282 </r>
       <r>    -0.6507     0.5816     0.7824 </r>
       <r>    -0.5576     0.5978     0.8380 </r>
       <r>    -0.4646     0.6080     0.8946 </r>
       <r>    -0.3715     0.6219     0.9524 </r>
       <r>    -0.2784     0.6400     1.0120 </r>
       <r>    -0.1854     0.6502     1.0725 </r>
       <r>    -0.0923     0.6586     1.1338 </r>
       <r>     0.0008     0.6778     1.1969 </r>
       <r>     0.0938     0.6929     1.2614 </r>
       <r>     0.1869     0.6967     1.3262 </r>
       <r>     0.2799     0.7093     1.3922 </r>
       <r>     0.3730     0.7301     1.4602 </r>
       <r>     0.4661     0.7410     1.5291 </r>
       <r>     0.5591     0.7434     1.5983 </r>
       <r>     0.6522     0.7550     1.6686 </r>
       <r>     0.7453     0.7791     1.7411 </r>
       <r>     0.8383     0.7897     1.8146 </r>
       <r>     0.9314     0.7855     1.8877 </r>
       <r>     1.0244     0.7992     1.9620 </r>
       <r>     1.1175     0.8256     2.0389 </r>
       <r>     1.2106     0.8348     2.1165 </r>
       <r>     1.3036     0.8328     2.1940 </r>
       <r>     1.3967     0.8407     2.2723 </r>
       <r>     1.4898     0.8615     2.3525 </r>
       <r>     1.5828     0.8830     2.4346 </r>
       <r>     1.6759     0.8861     2.5171 </r>
       <r>     1.7689     0.8768     2.5987 </r>
       <r>     1.8620     0.8933     2.6818 </r>
       <r>     1.9551     0.9285     2.7682 </r>
       <r>     2.0481     0.9352     2.8553 </r>
       <r>     2.1412     0.9227     2.9411 </r>
       <r>     2.2343     0.9306     3.0277 </r>
       <r>     2.3273     0.9551     3.1166 </r>
       <r>     2.4204     0.9751     3.2074 </r>
       <r>     2.5134     0.9834     3.2989 </r>
       <r>     2.6065     0.9798     3.3901 </r>
       <r>     2.6996     0.9767     3.4810 </r>
       <r>     2.7926     0.9980     3.5738 </r>
       <r>     2.8857     1.0352     3.6702 </r>
       <r>     2.9788     1.0427     3.7672 </r>
       <r>     3.0718     1.0189     3.8620 </r>
       <r>     3.1649     1.0203     3.9570 </r>
       <r>     3.2579     1.0606     4.0557 </r>
       <r>     3.3510     1.0861     4.1568 </r>
       <r>     3.4441     1.0817     4.2574 </r>
       <r>     3.5371     1.0801     4.3579 </r>
       <r>     3.6302     1.0858     4.4590 </r>
       <r>     3.7232     1.0969     4.5611 </r>
       <r>     3.8163     1.1240     4.6657 </r>
       <r>     3.9094     1.1540     4.7731 </r>
       <r>     4.0024     1.1580     4.8808 </r>
       <r>     4.0955     1.1417     4.9871 </r>
       <r>     4.1886     1.1574     5.0948 </r>
       <r>     4.2816     1.2176     5.2081 </r>
       <r>     4.3747     1.2556     5.3249 </r>
       <r>     4.4677     1.2236     5.4388 </r>
       <r>     4.5608     1.1657     5.5473 </r>
       <r>     4.6539     1.1435     5.6537 </r>
       <r>     4.7469     1.1508     5.7608 </r>
       <r>     4.8400     1.1616     5.8689 </r>
       <r>     4.9331     1.1741     5.9782 </r>
       <r>     5.0261     1.1923     6.0891 </r>
       <r>     5.1192     1.2068     6.2014 </r>
       <r>     5.2122     1.2083     6.3139 </r>
       <r>     5.3053     1.2232     6.4277 </r>
       <r>     5.3984     1.2668     6.5456 </r>
       <r>     5.4914     1.2939     6.6660 </r>
       <r>     5.5845     1.2743     6.7846 </r>
       <r>     5.6776     1.2525     6.9012 </r>
       <r>     5.7706     1.2899     7.0212 </r>
       <r>     5.8637     1.3552     7.1473 </r>
       <r>     5.9567     1.3635     7.2742 </r>
       <r>     6.0498     1.3472     7.3996 </r>
       <r>     6.1429     1.3889     7.5289 </r>
       <r>     6.2359     1.4502     7.6638 </r>
       <r>     6.3290     1.4528     7.7990 </r>
       <r>     6.4221     1.4107     7.9303 </r>
       <r>     6.5151     1.3920     8.0598 </r>
       <r>     6.6082     1.4065     8.1907 </r>
       <r>     6.7012     1.3947     8.3205 </r>
       <r>     6.7943     1.3551     8.4466 </r>
       <r>     6.8874     1.3398     8.5713 </r>
       <r>     6.9804     1.3429     8.6963 </r>
       <r>     7.0735     1.3332     8.8204 </r>
       <r>     7.1666     1.3077     8.9421 </r>
       <r>     7.2596     1.2886     9.0620 </r>
       <r>     7.3527     1.2865     9.1817 </r>
       <r>     7.4457     1.2921     9.3019 </r>
       <r>     7.5388     1.3010     9.4230 </r>
       <r>     7.6319     1.3033     9.5443 </r>
       <r>     7.7249     1.3102     9.6662 </r>
       <r>     7.8180     1.3489     9.7918 </r>
       <r>     7.9111     1.3914     9.9213 </r>
       <r>     8.0041     1.4022    10.0517 </r>
       <r>     8.0972     1.4149    10.1834 </r>
       <r>     8.1902     1.4741    10.3206 </r>
       <r>     8.2833     1.5458    10.4645 </r>
       <r>     8.3764     1.5582    10.6095 </r>
       <r>     8.4694     1.5179    10.7507 </r>
       <r>     8.5625     1.4769    10.8882 </r>
       <r>     8.6556     1.4548    11.0235 </r>
       <r>     8.7486     1.4371    11.1573 </r>
       <r>     8.8417     1.3965    11.2872 </r>
       <r>     8.9347     1.3420    11.4121 </r>
       <r>     9.0278     1.3015    11.5333 </r>
       <r>     9.1209     1.2778    11.6522 </r>
       <r>     9.2139     1.2761    11.7709 </r>
       <r>     9.3070     1.3209    11.8939 </r>
       <r>     9.4000     1.4166    12.0257 </r>
       <r>     9.4931     1.5287    12.1680 </r>
       <r>     9.5862     1.6165    12.3184 </r>
       <r>     9.6792     1.6369    12.4707 </r>
       <r>     9.7723     1.5690    12.6167 </r>
       <r>     9.8654     1.4941    12.7558 </r>
       <r>     9.9584     1.5158    12.8968 </r>
       <r>    10.0515     1.5950    13.0453 </r>
       <r>    10.1445     1.6225    13.1963 </r>
       <r>    10.2376     1.5923    13.3445 </r>
       <r>    10.3307     1.5737    13.4909 </r>
       <r>    10.4237     1.5918    13.6391 </r>
       <r>    10.5168     1.5867    13.7867 </r>
       <r>    10.6099     1.5095    13.9272 </r>
       <r>    10.7029     1.4447    14.0616 </r>
       <r>    10.7960     1.5114    14.2023 </r>
       <r>    10.8890     1.6660    14.3573 </r>
       <r>    10.9821     1.7132    14.5168 </r>
       <r>    11.0752     1.5763    14.6635 </r>
       <r>    11.1682     1.4106    14.7948 </r>
       <r>    11.2613     1.3738    14.9226 </r>
       <r>    11.3544     1.4898    15.0612 </r>
       <r>    11.4474     1.6780    15.2174 </r>
       <r>    11.5405     1.7710    15.3822 </r>
       <r>    11.6335     1.6854    15.5391 </r>
       <r>    11.7266     1.5557    15.6838 </r>
       <r>    11.8197     1.5203    15.8253 </r>
       <r>    11.9127     1.5586    15.9704 </r>
       <r>    12.0058     1.6199    16.1211 </r>
       <r>    12.0989     1.6873    16.2782 </r>
       <r>    12.1919     1.7323    16.4394 </r>
       <r>    12.2850     1.7357    16.6009 </r>
       <r>    12.3780     1.6869    16.7579 </r>
       <r>    12.4711     1.6177    16.9084 </r>
       <r>    12.5642     1.6211    17.0593 </r>
       <r>    12.6572     1.6771    17.2154 </r>
       <r>    12.7503     1.7076    17.3743 </r>
       <r>    12.8434     1.7519    17.5373 </r>
       <r>    12.9364     1.7858    17.7035 </r>
       <r>    13.0295     1.7332    17.8648 </r>
       <r>    13.1225     1.6791    18.0211 </r>
       <r>    13.2156     1.7217    18.1813 </r>
       <r>    13.3087     1.7957    18.3484 </r>
       <r>    13.4017     1.7845    18.5145 </r>
       <r>    13.4948     1.7171    18.6743 </r>
       <r>    13.5879     1.7252    18.8348 </r>
       <r>    13.6809     1.8171    19.0039 </r>
       <r>    13.7740     1.8652    19.1775 </r>
       <r>    13.8670     1.8089    19.3459 </r>
       <r>    13.9601     1.7589    19.5095 </r>
       <r>    14.0532     1.8205    19.6790 </r>
       <r>    14.1462     1.8913    19.8550 </r>
       <r>    14.2393     1.8337    20.0256 </r>
       <r>    14.3324     1.7486    20.1884 </r>
       <r>    14.4254     1.8168    20.3574 </r>
       <r>    14.5185     1.9669    20.5405 </r>
       <r>    14.6115     1.9788    20.7246 </r>
       <r>    14.7046     1.8525    20.8970 </r>
       <r>    14.7977     1.7918    21.0638 </r>
       <r>    14.8907     1.8294    21.2340 </r>
       <r>    14.9838     1.8034    21.4018 </r>
       <r>    15.0768     1.6980    21.5599 </r>
       <r>    15.1699     1.6340    21.7119 </r>
       <r>    15.2630     1.6232    21.8630 </r>
       <r>    15.3560     1.5743    22.0095 </r>
       <r>    15.4491     1.4319    22.1428 </r>
       <r>    15.5422     1.2513    22.2592 </r>
       <r>    15.6352     1.1163    22.3631 </r>
       <r>    15.7283     1.0235    22.4583 </r>
       <r>    15.8213     0.9510    22.5468 </r>
       <r>    15.9144     0.9064    22.6312 </r>
       <r>    16.0075     0.8720    22.7123 </r>
       <r>    16.1005     0.8186    22.7885 </r>
       <r>    16.1936     0.7504    22.8584 </r>
       <r>    16.2867     0.6905    22.9226 </r>
       <r>    16.3797     0.6402    22.9822 </r>
       <r>    16.4728     0.6066    23.0387 </r>
       <r>    16.5658     0.5948    23.0940 </r>
       <r>    16.6589     0.5617    23.1463 </r>
       <r>    16.7520     0.5025    23.1931 </r>
       <r>    16.8450     0.4807    23.2378 </r>
       <r>    16.9381     0.4932    23.2837 </r>
       <r>    17.0312     0.4727    23.3277 </r>
       <r>    17.1242     0.4156    23.3664 </r>
       <r>    17.2173     0.3758    23.4013 </r>
       <r>    17.3103     0.3702    23.4358 </r>
       <r>    17.4034     0.3713    23.4703 </r>
       <r>    17.4965     0.3697    23.5047 </r>
       <r>    17.5895     0.3547    23.5377 </r>
       <r>    17.6826     0.3133    23.5669 </r>
       <r>    17.7757     0.2838    23.5933 </r>
       <r>    17.8687     0.2910    23.6204 </r>
       <r>    17.9618     0.2958    23.6479 </r>
       <r>    18.0548     0.2690    23.6730 </r>
       <r>    18.1479     0.2381    23.6951 </r>
       <r>    18.2410     0.2326    23.7168 </r>
       <r>    18.3340     0.2314    23.7383 </r>
       <r>    18.4271     0.2107    23.7579 </r>
       <r>    18.5202     0.1913    23.7757 </r>
       <r>    18.6132     0.1870    23.7931 </r>
       <r>    18.7063     0.1806    23.8099 </r>
       <r>    18.7993     0.1696    23.8257 </r>
       <r>    18.8924     0.1642    23.8410 </r>
       <r>    18.9855     0.1600    23.8559 </r>
       <r>    19.0785     0.1452    23.8694 </r>
       <r>    19.1716     0.1240    23.8809 </r>
       <r>    19.2647     0.1136    23.8915 </r>
       <r>    19.3577     0.1148    23.9022 </r>
       <r>    19.4508     0.1176    23.9131 </r>
       <r>    19.5438     0.1129    23.9236 </r>
       <r>    19.6369     0.0927    23.9323 </r>
       <r>    19.7300     0.0711    23.9389 </r>
       <r>    19.8230     0.0682    23.9452 </r>
       <r>    19.9161     0.0797    23.9527 </r>
       <r>    20.0092     0.0809    23.9602 </r>
       <r>    20.1022     0.0595    23.9657 </r>
       <r>    20.1953     0.0404    23.9695 </r>
       <r>    20.2883     0.0456    23.9737 </r>
       <r>    20.3814     0.0579    23.9791 </r>
       <r>    20.4745     0.0516    23.9839 </r>
       <r>    20.5675     0.0319    23.9869 </r>
       <r>    20.6606     0.0230    23.9890 </r>
       <r>    20.7536     0.0272    23.9916 </r>
       <r>    20.8467     0.0271    23.9941 </r>
       <r>    20.9398     0.0182    23.9958 </r>
       <r>    21.0328     0.0102    23.9967 </r>
       <r>    21.1259     0.0087    23.9975 </r>
       <r>    21.2190     0.0103    23.9985 </r>
       <r>    21.3120     0.0100    23.9994 </r>
       <r>    21.4051     0.0058    24.0000 </r>
       <r>    21.4981     0.0013    24.0001 </r>
       <r>    21.5912    -0.0005    24.0000 </r>
       <r>    21.6843    -0.0004    24.0000 </r>
       <r>    21.7773    -0.0001    24.0000 </r>
       <r>    21.8704    -0.0000    24.0000 </r>
       <r>    21.9635    -0.0000    24.0000 </r>
       <r>    22.0565    -0.0000    24.0000 </r>
       <r>    22.1496    -0.0000    24.0000 </r>
       <r>    22.2426    -0.0000    24.0000 </r>
       <r>    22.3357    -0.0000    24.0000 </r>
       <r>    22.4288    -0.0000    24.0000 </r>
       <r>    22.5218    -0.0000    24.0000 </r>
       <r>    22.6149     0.0000    24.0000 </r>
       <r>    22.7080     0.0000    24.0000 </r>
       <r>    22.8010     0.0000    24.0000 </r>
       <r>    22.8941     0.0000    24.0000 </r>
       <r>    22.9871     0.0000    24.0000 </r>
       <r>    23.0802     0.0000    24.0000 </r>
       <r>    23.1733     0.0000    24.0000 </r>
       <r>    23.2663     0.0000    24.0000 </r>
      </set>
     </set>
    </array>
   </total>
  </dos>
 </calculation>
 <structure name="finalpos" >
  <crystal>
   <varray name="basis" >
    <v>       3.87724703       0.00000000       0.00000000 </v>
    <v>       0.00000000       3.87724703       0.00000000 </v>
    <v>       0.00000000       0.00000000       3.87724703 </v>
   </varray>
   <i name="volume">     58.28682713 </i>
   <varray name="rec_basis" >
    <v>       0.25791496      -0.00000000       0.00000000 </v>
    <v>       0.00000000       0.25791496       0.00000000 </v>
    <v>      -0.00000000      -0.00000000       0.25791496 </v>
   </varray>
  </crystal>
  <varray name="positions" >
   <v>       0.00000000       0.00000000       0.00000000 </v>
   <v>       0.00000000       0.50000000       0.50000000 </v>
   <v>       0.50000000       0.00000000       0.50000000 </v>
   <v>       0.50000000       0.50000000       0.00000000 </v>
  </varray>
 </structure>
</modeling>
