 ----------------------------------------------------
    OOO  PPPP  EEEEE N   N M   M PPPP
   O   O P   P E     NN  N MM MM P   P
   O   O PPPP  EEEEE N N N M M M PPPP   -- VERSION
   O   O P     E     N  NN M   M P
    OOO  P     EEEEE N   N M   M P
 ----------------------------------------------------
 running   48 mpi-ranks, with    1 threads/rank
 distrk:  each k-point on   48 cores,    1 groups
 distr:  one band on   12 cores,    4 groups
 vasp.6.3.2 27Jun22 (build Aug 12 2022 00:53:59) complex                        
  
 POSCAR found type information on POSCAR Al
 POSCAR found :  1 types and       4 ions
 Reading from existing POTCAR
 scaLAPACK will be used
 Reading from existing POTCAR
 LDA part: xc-table for Pade appr. of Perdew
 POSCAR, INCAR and KPOINTS ok, starting setup
 FFT: planning ... GRIDC
 FFT: planning ... GRID_SOFT
 FFT: planning ... GRID
 WAVECAR not read
 entering main loop
       N       E                     dE             d eps       ncg     rms          rms(c)
DAV:   1     0.129370783723E+01    0.12937E+01   -0.30139E+03 16580   0.479E+02
DAV:   2    -0.145323457476E+02   -0.15826E+02   -0.14733E+02 20904   0.758E+01
DAV:   3    -0.149957720158E+02   -0.46343E+00   -0.45762E+00 20900   0.109E+01
DAV:   4    -0.149979900921E+02   -0.22181E-02   -0.22175E-02 18404   0.975E-01
DAV:   5    -0.149980064436E+02   -0.16352E-04   -0.16351E-04 20564   0.828E-02    0.294E+00
DAV:   6    -0.149432142379E+02    0.54792E-01   -0.47776E-03 17832   0.413E-01    0.171E+00
DAV:   7    -0.149030645567E+02    0.40150E-01   -0.14193E-02 17748   0.666E-01    0.293E-01
DAV:   8    -0.149029381416E+02    0.12642E-03   -0.14560E-04 20732   0.890E-02    0.784E-02
DAV:   9    -0.149029282709E+02    0.98707E-05   -0.56705E-06 19068   0.150E-02    0.524E-03
DAV:  10    -0.149029277299E+02    0.54101E-06   -0.41929E-08 20784   0.176E-03    0.135E-03
DAV:  11    -0.149029268755E+02    0.85442E-06   -0.29843E-09 19180   0.409E-04    0.306E-04
DAV:  12    -0.149029268902E+02   -0.14679E-07   -0.20262E-11 12356   0.359E-05    0.136E-04
DAV:  13    -0.149029269118E+02   -0.21619E-07   -0.42543E-12 11120   0.173E-05    0.683E-06
DAV:  14    -0.149029269111E+02    0.67769E-09   -0.14190E-13 10600   0.317E-06
   1 F= -.14902927E+02 E0= -.14902877E+02  d E =-.149029E+02
 curvature:   0.00 expect dE= 0.000E+00 dE for cont linesearch  0.000E+00
 trial: gam= 0.00000 g(F)=  0.152E-63 g(S)=  0.000E+00 ort = 0.000E+00 (trialstep = 0.100E+01)
 search vector abs. value=  0.100E-09
 reached required accuracy - stopping structural energy minimisation
