<?xml version="1.0" encoding="ISO-8859-1"?>
<modeling>
 <generator>
  <i name="program" type="string">vasp </i>
  <i name="version" type="string">6.3.2  </i>
  <i name="subversion" type="string">27Jun22 (build Aug 12 2022 00:53:59) complex                          parallel </i>
  <i name="platform" type="string">tv2STD </i>
  <i name="date" type="string">2025 07 01 </i>
  <i name="time" type="string">00:07:09 </i>
 </generator>
 <incar>
  <i type="string" name="PREC">Accurate</i>
  <i type="string" name="ALGO">Normal</i>
  <i type="logical" name="ADDGRID"> T  </i>
  <i type="int" name="NELM">   300</i>
  <i type="int" name="NELMIN">     5</i>
  <i type="int" name="IBRION">     2</i>
  <i name="EDIFF">      0.00000001</i>
  <i name="EDIFFG">     -0.00000001</i>
  <i type="int" name="NSW">   500</i>
  <i type="int" name="ISIF">     2</i>
  <i name="ENCUT">    300.00000000</i>
  <i type="logical" name="LREAL"> F  </i>
  <i type="int" name="ISMEAR">     1</i>
  <i name="SIGMA">      0.20000000</i>
  <i type="logical" name="LWAVE"> F  </i>
  <i type="logical" name="LCHARG"> F  </i>
 </incar>
 <primitive_cell>
  <structure name="primitive_cell" >
   <crystal>
    <varray name="basis" >
     <v>       1.97901150      -1.97901150       0.00000000 </v>
     <v>       1.97901150       0.00000000       1.97901150 </v>
     <v>       0.00000000      -1.97901150       1.97901150 </v>
    </varray>
    <i name="volume">     15.50154379 </i>
    <varray name="rec_basis" >
     <v>       0.25265139      -0.25265139      -0.25265139 </v>
     <v>       0.25265139       0.25265139       0.25265139 </v>
     <v>      -0.25265139      -0.25265139       0.25265139 </v>
    </varray>
   </crystal>
   <varray name="positions" >
    <v>       0.00000000       0.00000000       0.00000000 </v>
   </varray>
  </structure>
  <varray name="primitive_index" >
   <v type="int" >        1 </v>
  </varray>
 </primitive_cell>
 <kpoints>
  <generation param="Monkhorst-Pack">
   <v type="int" name="divisions">      30       30       30 </v>
   <v name="usershift">      0.00000000       0.00000000       0.00000000 </v>
   <v name="genvec1">      0.03333333       0.00000000       0.00000000 </v>
   <v name="genvec2">      0.00000000       0.03333333       0.00000000 </v>
   <v name="genvec3">     -0.00000000      -0.00000000       0.03333333 </v>
   <v name="shift">      0.50000000       0.50000000       0.50000000 </v>
  </generation>
  <varray name="kpointlist" >
   <v>       0.01666667       0.01666667       0.01666667 </v>
   <v>       0.05000000       0.01666667       0.01666667 </v>
   <v>       0.08333333       0.01666667       0.01666667 </v>
   <v>       0.11666667       0.01666667       0.01666667 </v>
   <v>       0.15000000       0.01666667       0.01666667 </v>
   <v>       0.18333333       0.01666667       0.01666667 </v>
   <v>       0.21666667       0.01666667       0.01666667 </v>
   <v>       0.25000000       0.01666667       0.01666667 </v>
   <v>       0.28333333       0.01666667       0.01666667 </v>
   <v>       0.31666667       0.01666667       0.01666667 </v>
   <v>       0.35000000       0.01666667       0.01666667 </v>
   <v>       0.38333333       0.01666667       0.01666667 </v>
   <v>       0.41666667       0.01666667       0.01666667 </v>
   <v>       0.45000000       0.01666667       0.01666667 </v>
   <v>       0.48333333       0.01666667       0.01666667 </v>
   <v>       0.05000000       0.05000000       0.01666667 </v>
   <v>       0.08333333       0.05000000       0.01666667 </v>
   <v>       0.11666667       0.05000000       0.01666667 </v>
   <v>       0.15000000       0.05000000       0.01666667 </v>
   <v>       0.18333333       0.05000000       0.01666667 </v>
   <v>       0.21666667       0.05000000       0.01666667 </v>
   <v>       0.25000000       0.05000000       0.01666667 </v>
   <v>       0.28333333       0.05000000       0.01666667 </v>
   <v>       0.31666667       0.05000000       0.01666667 </v>
   <v>       0.35000000       0.05000000       0.01666667 </v>
   <v>       0.38333333       0.05000000       0.01666667 </v>
   <v>       0.41666667       0.05000000       0.01666667 </v>
   <v>       0.45000000       0.05000000       0.01666667 </v>
   <v>       0.48333333       0.05000000       0.01666667 </v>
   <v>       0.08333333       0.08333333       0.01666667 </v>
   <v>       0.11666667       0.08333333       0.01666667 </v>
   <v>       0.15000000       0.08333333       0.01666667 </v>
   <v>       0.18333333       0.08333333       0.01666667 </v>
   <v>       0.21666667       0.08333333       0.01666667 </v>
   <v>       0.25000000       0.08333333       0.01666667 </v>
   <v>       0.28333333       0.08333333       0.01666667 </v>
   <v>       0.31666667       0.08333333       0.01666667 </v>
   <v>       0.35000000       0.08333333       0.01666667 </v>
   <v>       0.38333333       0.08333333       0.01666667 </v>
   <v>       0.41666667       0.08333333       0.01666667 </v>
   <v>       0.45000000       0.08333333       0.01666667 </v>
   <v>       0.48333333       0.08333333       0.01666667 </v>
   <v>       0.11666667       0.11666667       0.01666667 </v>
   <v>       0.15000000       0.11666667       0.01666667 </v>
   <v>       0.18333333       0.11666667       0.01666667 </v>
   <v>       0.21666667       0.11666667       0.01666667 </v>
   <v>       0.25000000       0.11666667       0.01666667 </v>
   <v>       0.28333333       0.11666667       0.01666667 </v>
   <v>       0.31666667       0.11666667       0.01666667 </v>
   <v>       0.35000000       0.11666667       0.01666667 </v>
   <v>       0.38333333       0.11666667       0.01666667 </v>
   <v>       0.41666667       0.11666667       0.01666667 </v>
   <v>       0.45000000       0.11666667       0.01666667 </v>
   <v>       0.48333333       0.11666667       0.01666667 </v>
   <v>       0.15000000       0.15000000       0.01666667 </v>
   <v>       0.18333333       0.15000000       0.01666667 </v>
   <v>       0.21666667       0.15000000       0.01666667 </v>
   <v>       0.25000000       0.15000000       0.01666667 </v>
   <v>       0.28333333       0.15000000       0.01666667 </v>
   <v>       0.31666667       0.15000000       0.01666667 </v>
   <v>       0.35000000       0.15000000       0.01666667 </v>
   <v>       0.38333333       0.15000000       0.01666667 </v>
   <v>       0.41666667       0.15000000       0.01666667 </v>
   <v>       0.45000000       0.15000000       0.01666667 </v>
   <v>       0.48333333       0.15000000       0.01666667 </v>
   <v>       0.18333333       0.18333333       0.01666667 </v>
   <v>       0.21666667       0.18333333       0.01666667 </v>
   <v>       0.25000000       0.18333333       0.01666667 </v>
   <v>       0.28333333       0.18333333       0.01666667 </v>
   <v>       0.31666667       0.18333333       0.01666667 </v>
   <v>       0.35000000       0.18333333       0.01666667 </v>
   <v>       0.38333333       0.18333333       0.01666667 </v>
   <v>       0.41666667       0.18333333       0.01666667 </v>
   <v>       0.45000000       0.18333333       0.01666667 </v>
   <v>       0.48333333       0.18333333       0.01666667 </v>
   <v>       0.21666667       0.21666667       0.01666667 </v>
   <v>       0.25000000       0.21666667       0.01666667 </v>
   <v>       0.28333333       0.21666667       0.01666667 </v>
   <v>       0.31666667       0.21666667       0.01666667 </v>
   <v>       0.35000000       0.21666667       0.01666667 </v>
   <v>       0.38333333       0.21666667       0.01666667 </v>
   <v>       0.41666667       0.21666667       0.01666667 </v>
   <v>       0.45000000       0.21666667       0.01666667 </v>
   <v>       0.48333333       0.21666667       0.01666667 </v>
   <v>       0.25000000       0.25000000       0.01666667 </v>
   <v>       0.28333333       0.25000000       0.01666667 </v>
   <v>       0.31666667       0.25000000       0.01666667 </v>
   <v>       0.35000000       0.25000000       0.01666667 </v>
   <v>       0.38333333       0.25000000       0.01666667 </v>
   <v>       0.41666667       0.25000000       0.01666667 </v>
   <v>       0.45000000       0.25000000       0.01666667 </v>
   <v>       0.48333333       0.25000000       0.01666667 </v>
   <v>       0.28333333       0.28333333       0.01666667 </v>
   <v>       0.31666667       0.28333333       0.01666667 </v>
   <v>       0.35000000       0.28333333       0.01666667 </v>
   <v>       0.38333333       0.28333333       0.01666667 </v>
   <v>       0.41666667       0.28333333       0.01666667 </v>
   <v>       0.45000000       0.28333333       0.01666667 </v>
   <v>       0.48333333       0.28333333       0.01666667 </v>
   <v>       0.31666667       0.31666667       0.01666667 </v>
   <v>       0.35000000       0.31666667       0.01666667 </v>
   <v>       0.38333333       0.31666667       0.01666667 </v>
   <v>       0.41666667       0.31666667       0.01666667 </v>
   <v>       0.45000000       0.31666667       0.01666667 </v>
   <v>       0.48333333       0.31666667       0.01666667 </v>
   <v>       0.35000000       0.35000000       0.01666667 </v>
   <v>       0.38333333       0.35000000       0.01666667 </v>
   <v>       0.41666667       0.35000000       0.01666667 </v>
   <v>       0.45000000       0.35000000       0.01666667 </v>
   <v>       0.48333333       0.35000000       0.01666667 </v>
   <v>       0.38333333       0.38333333       0.01666667 </v>
   <v>       0.41666667       0.38333333       0.01666667 </v>
   <v>       0.45000000       0.38333333       0.01666667 </v>
   <v>       0.48333333       0.38333333       0.01666667 </v>
   <v>       0.41666667       0.41666667       0.01666667 </v>
   <v>       0.45000000       0.41666667       0.01666667 </v>
   <v>       0.48333333       0.41666667       0.01666667 </v>
   <v>       0.45000000       0.45000000       0.01666667 </v>
   <v>       0.48333333       0.45000000       0.01666667 </v>
   <v>       0.48333333       0.48333333       0.01666667 </v>
   <v>       0.05000000       0.05000000       0.05000000 </v>
   <v>       0.08333333       0.05000000       0.05000000 </v>
   <v>       0.11666667       0.05000000       0.05000000 </v>
   <v>       0.15000000       0.05000000       0.05000000 </v>
   <v>       0.18333333       0.05000000       0.05000000 </v>
   <v>       0.21666667       0.05000000       0.05000000 </v>
   <v>       0.25000000       0.05000000       0.05000000 </v>
   <v>       0.28333333       0.05000000       0.05000000 </v>
   <v>       0.31666667       0.05000000       0.05000000 </v>
   <v>       0.35000000       0.05000000       0.05000000 </v>
   <v>       0.38333333       0.05000000       0.05000000 </v>
   <v>       0.41666667       0.05000000       0.05000000 </v>
   <v>       0.45000000       0.05000000       0.05000000 </v>
   <v>       0.48333333       0.05000000       0.05000000 </v>
   <v>       0.08333333       0.08333333       0.05000000 </v>
   <v>       0.11666667       0.08333333       0.05000000 </v>
   <v>       0.15000000       0.08333333       0.05000000 </v>
   <v>       0.18333333       0.08333333       0.05000000 </v>
   <v>       0.21666667       0.08333333       0.05000000 </v>
   <v>       0.25000000       0.08333333       0.05000000 </v>
   <v>       0.28333333       0.08333333       0.05000000 </v>
   <v>       0.31666667       0.08333333       0.05000000 </v>
   <v>       0.35000000       0.08333333       0.05000000 </v>
   <v>       0.38333333       0.08333333       0.05000000 </v>
   <v>       0.41666667       0.08333333       0.05000000 </v>
   <v>       0.45000000       0.08333333       0.05000000 </v>
   <v>       0.48333333       0.08333333       0.05000000 </v>
   <v>       0.11666667       0.11666667       0.05000000 </v>
   <v>       0.15000000       0.11666667       0.05000000 </v>
   <v>       0.18333333       0.11666667       0.05000000 </v>
   <v>       0.21666667       0.11666667       0.05000000 </v>
   <v>       0.25000000       0.11666667       0.05000000 </v>
   <v>       0.28333333       0.11666667       0.05000000 </v>
   <v>       0.31666667       0.11666667       0.05000000 </v>
   <v>       0.35000000       0.11666667       0.05000000 </v>
   <v>       0.38333333       0.11666667       0.05000000 </v>
   <v>       0.41666667       0.11666667       0.05000000 </v>
   <v>       0.45000000       0.11666667       0.05000000 </v>
   <v>       0.48333333       0.11666667       0.05000000 </v>
   <v>       0.15000000       0.15000000       0.05000000 </v>
   <v>       0.18333333       0.15000000       0.05000000 </v>
   <v>       0.21666667       0.15000000       0.05000000 </v>
   <v>       0.25000000       0.15000000       0.05000000 </v>
   <v>       0.28333333       0.15000000       0.05000000 </v>
   <v>       0.31666667       0.15000000       0.05000000 </v>
   <v>       0.35000000       0.15000000       0.05000000 </v>
   <v>       0.38333333       0.15000000       0.05000000 </v>
   <v>       0.41666667       0.15000000       0.05000000 </v>
   <v>       0.45000000       0.15000000       0.05000000 </v>
   <v>       0.48333333       0.15000000       0.05000000 </v>
   <v>       0.18333333       0.18333333       0.05000000 </v>
   <v>       0.21666667       0.18333333       0.05000000 </v>
   <v>       0.25000000       0.18333333       0.05000000 </v>
   <v>       0.28333333       0.18333333       0.05000000 </v>
   <v>       0.31666667       0.18333333       0.05000000 </v>
   <v>       0.35000000       0.18333333       0.05000000 </v>
   <v>       0.38333333       0.18333333       0.05000000 </v>
   <v>       0.41666667       0.18333333       0.05000000 </v>
   <v>       0.45000000       0.18333333       0.05000000 </v>
   <v>       0.48333333       0.18333333       0.05000000 </v>
   <v>       0.21666667       0.21666667       0.05000000 </v>
   <v>       0.25000000       0.21666667       0.05000000 </v>
   <v>       0.28333333       0.21666667       0.05000000 </v>
   <v>       0.31666667       0.21666667       0.05000000 </v>
   <v>       0.35000000       0.21666667       0.05000000 </v>
   <v>       0.38333333       0.21666667       0.05000000 </v>
   <v>       0.41666667       0.21666667       0.05000000 </v>
   <v>       0.45000000       0.21666667       0.05000000 </v>
   <v>       0.48333333       0.21666667       0.05000000 </v>
   <v>       0.25000000       0.25000000       0.05000000 </v>
   <v>       0.28333333       0.25000000       0.05000000 </v>
   <v>       0.31666667       0.25000000       0.05000000 </v>
   <v>       0.35000000       0.25000000       0.05000000 </v>
   <v>       0.38333333       0.25000000       0.05000000 </v>
   <v>       0.41666667       0.25000000       0.05000000 </v>
   <v>       0.45000000       0.25000000       0.05000000 </v>
   <v>       0.48333333       0.25000000       0.05000000 </v>
   <v>       0.28333333       0.28333333       0.05000000 </v>
   <v>       0.31666667       0.28333333       0.05000000 </v>
   <v>       0.35000000       0.28333333       0.05000000 </v>
   <v>       0.38333333       0.28333333       0.05000000 </v>
   <v>       0.41666667       0.28333333       0.05000000 </v>
   <v>       0.45000000       0.28333333       0.05000000 </v>
   <v>       0.48333333       0.28333333       0.05000000 </v>
   <v>       0.31666667       0.31666667       0.05000000 </v>
   <v>       0.35000000       0.31666667       0.05000000 </v>
   <v>       0.38333333       0.31666667       0.05000000 </v>
   <v>       0.41666667       0.31666667       0.05000000 </v>
   <v>       0.45000000       0.31666667       0.05000000 </v>
   <v>       0.48333333       0.31666667       0.05000000 </v>
   <v>       0.35000000       0.35000000       0.05000000 </v>
   <v>       0.38333333       0.35000000       0.05000000 </v>
   <v>       0.41666667       0.35000000       0.05000000 </v>
   <v>       0.45000000       0.35000000       0.05000000 </v>
   <v>       0.48333333       0.35000000       0.05000000 </v>
   <v>       0.38333333       0.38333333       0.05000000 </v>
   <v>       0.41666667       0.38333333       0.05000000 </v>
   <v>       0.45000000       0.38333333       0.05000000 </v>
   <v>       0.48333333       0.38333333       0.05000000 </v>
   <v>       0.41666667       0.41666667       0.05000000 </v>
   <v>       0.45000000       0.41666667       0.05000000 </v>
   <v>       0.48333333       0.41666667       0.05000000 </v>
   <v>       0.45000000       0.45000000       0.05000000 </v>
   <v>       0.48333333       0.45000000       0.05000000 </v>
   <v>       0.48333333       0.48333333       0.05000000 </v>
   <v>       0.08333333       0.08333333       0.08333333 </v>
   <v>       0.11666667       0.08333333       0.08333333 </v>
   <v>       0.15000000       0.08333333       0.08333333 </v>
   <v>       0.18333333       0.08333333       0.08333333 </v>
   <v>       0.21666667       0.08333333       0.08333333 </v>
   <v>       0.25000000       0.08333333       0.08333333 </v>
   <v>       0.28333333       0.08333333       0.08333333 </v>
   <v>       0.31666667       0.08333333       0.08333333 </v>
   <v>       0.35000000       0.08333333       0.08333333 </v>
   <v>       0.38333333       0.08333333       0.08333333 </v>
   <v>       0.41666667       0.08333333       0.08333333 </v>
   <v>       0.45000000       0.08333333       0.08333333 </v>
   <v>       0.48333333       0.08333333       0.08333333 </v>
   <v>       0.11666667       0.11666667       0.08333333 </v>
   <v>       0.15000000       0.11666667       0.08333333 </v>
   <v>       0.18333333       0.11666667       0.08333333 </v>
   <v>       0.21666667       0.11666667       0.08333333 </v>
   <v>       0.25000000       0.11666667       0.08333333 </v>
   <v>       0.28333333       0.11666667       0.08333333 </v>
   <v>       0.31666667       0.11666667       0.08333333 </v>
   <v>       0.35000000       0.11666667       0.08333333 </v>
   <v>       0.38333333       0.11666667       0.08333333 </v>
   <v>       0.41666667       0.11666667       0.08333333 </v>
   <v>       0.45000000       0.11666667       0.08333333 </v>
   <v>       0.48333333       0.11666667       0.08333333 </v>
   <v>       0.15000000       0.15000000       0.08333333 </v>
   <v>       0.18333333       0.15000000       0.08333333 </v>
   <v>       0.21666667       0.15000000       0.08333333 </v>
   <v>       0.25000000       0.15000000       0.08333333 </v>
   <v>       0.28333333       0.15000000       0.08333333 </v>
   <v>       0.31666667       0.15000000       0.08333333 </v>
   <v>       0.35000000       0.15000000       0.08333333 </v>
   <v>       0.38333333       0.15000000       0.08333333 </v>
   <v>       0.41666667       0.15000000       0.08333333 </v>
   <v>       0.45000000       0.15000000       0.08333333 </v>
   <v>       0.48333333       0.15000000       0.08333333 </v>
   <v>       0.18333333       0.18333333       0.08333333 </v>
   <v>       0.21666667       0.18333333       0.08333333 </v>
   <v>       0.25000000       0.18333333       0.08333333 </v>
   <v>       0.28333333       0.18333333       0.08333333 </v>
   <v>       0.31666667       0.18333333       0.08333333 </v>
   <v>       0.35000000       0.18333333       0.08333333 </v>
   <v>       0.38333333       0.18333333       0.08333333 </v>
   <v>       0.41666667       0.18333333       0.08333333 </v>
   <v>       0.45000000       0.18333333       0.08333333 </v>
   <v>       0.48333333       0.18333333       0.08333333 </v>
   <v>       0.21666667       0.21666667       0.08333333 </v>
   <v>       0.25000000       0.21666667       0.08333333 </v>
   <v>       0.28333333       0.21666667       0.08333333 </v>
   <v>       0.31666667       0.21666667       0.08333333 </v>
   <v>       0.35000000       0.21666667       0.08333333 </v>
   <v>       0.38333333       0.21666667       0.08333333 </v>
   <v>       0.41666667       0.21666667       0.08333333 </v>
   <v>       0.45000000       0.21666667       0.08333333 </v>
   <v>       0.48333333       0.21666667       0.08333333 </v>
   <v>       0.25000000       0.25000000       0.08333333 </v>
   <v>       0.28333333       0.25000000       0.08333333 </v>
   <v>       0.31666667       0.25000000       0.08333333 </v>
   <v>       0.35000000       0.25000000       0.08333333 </v>
   <v>       0.38333333       0.25000000       0.08333333 </v>
   <v>       0.41666667       0.25000000       0.08333333 </v>
   <v>       0.45000000       0.25000000       0.08333333 </v>
   <v>       0.48333333       0.25000000       0.08333333 </v>
   <v>       0.28333333       0.28333333       0.08333333 </v>
   <v>       0.31666667       0.28333333       0.08333333 </v>
   <v>       0.35000000       0.28333333       0.08333333 </v>
   <v>       0.38333333       0.28333333       0.08333333 </v>
   <v>       0.41666667       0.28333333       0.08333333 </v>
   <v>       0.45000000       0.28333333       0.08333333 </v>
   <v>       0.48333333       0.28333333       0.08333333 </v>
   <v>       0.31666667       0.31666667       0.08333333 </v>
   <v>       0.35000000       0.31666667       0.08333333 </v>
   <v>       0.38333333       0.31666667       0.08333333 </v>
   <v>       0.41666667       0.31666667       0.08333333 </v>
   <v>       0.45000000       0.31666667       0.08333333 </v>
   <v>       0.48333333       0.31666667       0.08333333 </v>
   <v>       0.35000000       0.35000000       0.08333333 </v>
   <v>       0.38333333       0.35000000       0.08333333 </v>
   <v>       0.41666667       0.35000000       0.08333333 </v>
   <v>       0.45000000       0.35000000       0.08333333 </v>
   <v>       0.48333333       0.35000000       0.08333333 </v>
   <v>       0.38333333       0.38333333       0.08333333 </v>
   <v>       0.41666667       0.38333333       0.08333333 </v>
   <v>       0.45000000       0.38333333       0.08333333 </v>
   <v>       0.48333333       0.38333333       0.08333333 </v>
   <v>       0.41666667       0.41666667       0.08333333 </v>
   <v>       0.45000000       0.41666667       0.08333333 </v>
   <v>       0.48333333       0.41666667       0.08333333 </v>
   <v>       0.45000000       0.45000000       0.08333333 </v>
   <v>       0.48333333       0.45000000       0.08333333 </v>
   <v>       0.48333333       0.48333333       0.08333333 </v>
   <v>       0.11666667       0.11666667       0.11666667 </v>
   <v>       0.15000000       0.11666667       0.11666667 </v>
   <v>       0.18333333       0.11666667       0.11666667 </v>
   <v>       0.21666667       0.11666667       0.11666667 </v>
   <v>       0.25000000       0.11666667       0.11666667 </v>
   <v>       0.28333333       0.11666667       0.11666667 </v>
   <v>       0.31666667       0.11666667       0.11666667 </v>
   <v>       0.35000000       0.11666667       0.11666667 </v>
   <v>       0.38333333       0.11666667       0.11666667 </v>
   <v>       0.41666667       0.11666667       0.11666667 </v>
   <v>       0.45000000       0.11666667       0.11666667 </v>
   <v>       0.48333333       0.11666667       0.11666667 </v>
   <v>       0.15000000       0.15000000       0.11666667 </v>
   <v>       0.18333333       0.15000000       0.11666667 </v>
   <v>       0.21666667       0.15000000       0.11666667 </v>
   <v>       0.25000000       0.15000000       0.11666667 </v>
   <v>       0.28333333       0.15000000       0.11666667 </v>
   <v>       0.31666667       0.15000000       0.11666667 </v>
   <v>       0.35000000       0.15000000       0.11666667 </v>
   <v>       0.38333333       0.15000000       0.11666667 </v>
   <v>       0.41666667       0.15000000       0.11666667 </v>
   <v>       0.45000000       0.15000000       0.11666667 </v>
   <v>       0.48333333       0.15000000       0.11666667 </v>
   <v>       0.18333333       0.18333333       0.11666667 </v>
   <v>       0.21666667       0.18333333       0.11666667 </v>
   <v>       0.25000000       0.18333333       0.11666667 </v>
   <v>       0.28333333       0.18333333       0.11666667 </v>
   <v>       0.31666667       0.18333333       0.11666667 </v>
   <v>       0.35000000       0.18333333       0.11666667 </v>
   <v>       0.38333333       0.18333333       0.11666667 </v>
   <v>       0.41666667       0.18333333       0.11666667 </v>
   <v>       0.45000000       0.18333333       0.11666667 </v>
   <v>       0.48333333       0.18333333       0.11666667 </v>
   <v>       0.21666667       0.21666667       0.11666667 </v>
   <v>       0.25000000       0.21666667       0.11666667 </v>
   <v>       0.28333333       0.21666667       0.11666667 </v>
   <v>       0.31666667       0.21666667       0.11666667 </v>
   <v>       0.35000000       0.21666667       0.11666667 </v>
   <v>       0.38333333       0.21666667       0.11666667 </v>
   <v>       0.41666667       0.21666667       0.11666667 </v>
   <v>       0.45000000       0.21666667       0.11666667 </v>
   <v>       0.48333333       0.21666667       0.11666667 </v>
   <v>       0.25000000       0.25000000       0.11666667 </v>
   <v>       0.28333333       0.25000000       0.11666667 </v>
   <v>       0.31666667       0.25000000       0.11666667 </v>
   <v>       0.35000000       0.25000000       0.11666667 </v>
   <v>       0.38333333       0.25000000       0.11666667 </v>
   <v>       0.41666667       0.25000000       0.11666667 </v>
   <v>       0.45000000       0.25000000       0.11666667 </v>
   <v>       0.48333333       0.25000000       0.11666667 </v>
   <v>       0.28333333       0.28333333       0.11666667 </v>
   <v>       0.31666667       0.28333333       0.11666667 </v>
   <v>       0.35000000       0.28333333       0.11666667 </v>
   <v>       0.38333333       0.28333333       0.11666667 </v>
   <v>       0.41666667       0.28333333       0.11666667 </v>
   <v>       0.45000000       0.28333333       0.11666667 </v>
   <v>       0.48333333       0.28333333       0.11666667 </v>
   <v>       0.31666667       0.31666667       0.11666667 </v>
   <v>       0.35000000       0.31666667       0.11666667 </v>
   <v>       0.38333333       0.31666667       0.11666667 </v>
   <v>       0.41666667       0.31666667       0.11666667 </v>
   <v>       0.45000000       0.31666667       0.11666667 </v>
   <v>       0.48333333       0.31666667       0.11666667 </v>
   <v>       0.35000000       0.35000000       0.11666667 </v>
   <v>       0.38333333       0.35000000       0.11666667 </v>
   <v>       0.41666667       0.35000000       0.11666667 </v>
   <v>       0.45000000       0.35000000       0.11666667 </v>
   <v>       0.48333333       0.35000000       0.11666667 </v>
   <v>       0.38333333       0.38333333       0.11666667 </v>
   <v>       0.41666667       0.38333333       0.11666667 </v>
   <v>       0.45000000       0.38333333       0.11666667 </v>
   <v>       0.48333333       0.38333333       0.11666667 </v>
   <v>       0.41666667       0.41666667       0.11666667 </v>
   <v>       0.45000000       0.41666667       0.11666667 </v>
   <v>       0.48333333       0.41666667       0.11666667 </v>
   <v>       0.45000000       0.45000000       0.11666667 </v>
   <v>       0.48333333       0.45000000       0.11666667 </v>
   <v>       0.48333333       0.48333333       0.11666667 </v>
   <v>       0.15000000       0.15000000       0.15000000 </v>
   <v>       0.18333333       0.15000000       0.15000000 </v>
   <v>       0.21666667       0.15000000       0.15000000 </v>
   <v>       0.25000000       0.15000000       0.15000000 </v>
   <v>       0.28333333       0.15000000       0.15000000 </v>
   <v>       0.31666667       0.15000000       0.15000000 </v>
   <v>       0.35000000       0.15000000       0.15000000 </v>
   <v>       0.38333333       0.15000000       0.15000000 </v>
   <v>       0.41666667       0.15000000       0.15000000 </v>
   <v>       0.45000000       0.15000000       0.15000000 </v>
   <v>       0.48333333       0.15000000       0.15000000 </v>
   <v>       0.18333333       0.18333333       0.15000000 </v>
   <v>       0.21666667       0.18333333       0.15000000 </v>
   <v>       0.25000000       0.18333333       0.15000000 </v>
   <v>       0.28333333       0.18333333       0.15000000 </v>
   <v>       0.31666667       0.18333333       0.15000000 </v>
   <v>       0.35000000       0.18333333       0.15000000 </v>
   <v>       0.38333333       0.18333333       0.15000000 </v>
   <v>       0.41666667       0.18333333       0.15000000 </v>
   <v>       0.45000000       0.18333333       0.15000000 </v>
   <v>       0.48333333       0.18333333       0.15000000 </v>
   <v>       0.21666667       0.21666667       0.15000000 </v>
   <v>       0.25000000       0.21666667       0.15000000 </v>
   <v>       0.28333333       0.21666667       0.15000000 </v>
   <v>       0.31666667       0.21666667       0.15000000 </v>
   <v>       0.35000000       0.21666667       0.15000000 </v>
   <v>       0.38333333       0.21666667       0.15000000 </v>
   <v>       0.41666667       0.21666667       0.15000000 </v>
   <v>       0.45000000       0.21666667       0.15000000 </v>
   <v>       0.48333333       0.21666667       0.15000000 </v>
   <v>       0.25000000       0.25000000       0.15000000 </v>
   <v>       0.28333333       0.25000000       0.15000000 </v>
   <v>       0.31666667       0.25000000       0.15000000 </v>
   <v>       0.35000000       0.25000000       0.15000000 </v>
   <v>       0.38333333       0.25000000       0.15000000 </v>
   <v>       0.41666667       0.25000000       0.15000000 </v>
   <v>       0.45000000       0.25000000       0.15000000 </v>
   <v>       0.48333333       0.25000000       0.15000000 </v>
   <v>       0.28333333       0.28333333       0.15000000 </v>
   <v>       0.31666667       0.28333333       0.15000000 </v>
   <v>       0.35000000       0.28333333       0.15000000 </v>
   <v>       0.38333333       0.28333333       0.15000000 </v>
   <v>       0.41666667       0.28333333       0.15000000 </v>
   <v>       0.45000000       0.28333333       0.15000000 </v>
   <v>       0.48333333       0.28333333       0.15000000 </v>
   <v>       0.31666667       0.31666667       0.15000000 </v>
   <v>       0.35000000       0.31666667       0.15000000 </v>
   <v>       0.38333333       0.31666667       0.15000000 </v>
   <v>       0.41666667       0.31666667       0.15000000 </v>
   <v>       0.45000000       0.31666667       0.15000000 </v>
   <v>       0.48333333       0.31666667       0.15000000 </v>
   <v>       0.35000000       0.35000000       0.15000000 </v>
   <v>       0.38333333       0.35000000       0.15000000 </v>
   <v>       0.41666667       0.35000000       0.15000000 </v>
   <v>       0.45000000       0.35000000       0.15000000 </v>
   <v>       0.48333333       0.35000000       0.15000000 </v>
   <v>       0.38333333       0.38333333       0.15000000 </v>
   <v>       0.41666667       0.38333333       0.15000000 </v>
   <v>       0.45000000       0.38333333       0.15000000 </v>
   <v>       0.48333333       0.38333333       0.15000000 </v>
   <v>       0.41666667       0.41666667       0.15000000 </v>
   <v>       0.45000000       0.41666667       0.15000000 </v>
   <v>       0.48333333       0.41666667       0.15000000 </v>
   <v>       0.45000000       0.45000000       0.15000000 </v>
   <v>       0.48333333       0.45000000       0.15000000 </v>
   <v>       0.48333333       0.48333333       0.15000000 </v>
   <v>       0.18333333       0.18333333       0.18333333 </v>
   <v>       0.21666667       0.18333333       0.18333333 </v>
   <v>       0.25000000       0.18333333       0.18333333 </v>
   <v>       0.28333333       0.18333333       0.18333333 </v>
   <v>       0.31666667       0.18333333       0.18333333 </v>
   <v>       0.35000000       0.18333333       0.18333333 </v>
   <v>       0.38333333       0.18333333       0.18333333 </v>
   <v>       0.41666667       0.18333333       0.18333333 </v>
   <v>       0.45000000       0.18333333       0.18333333 </v>
   <v>       0.48333333       0.18333333       0.18333333 </v>
   <v>       0.21666667       0.21666667       0.18333333 </v>
   <v>       0.25000000       0.21666667       0.18333333 </v>
   <v>       0.28333333       0.21666667       0.18333333 </v>
   <v>       0.31666667       0.21666667       0.18333333 </v>
   <v>       0.35000000       0.21666667       0.18333333 </v>
   <v>       0.38333333       0.21666667       0.18333333 </v>
   <v>       0.41666667       0.21666667       0.18333333 </v>
   <v>       0.45000000       0.21666667       0.18333333 </v>
   <v>       0.48333333       0.21666667       0.18333333 </v>
   <v>       0.25000000       0.25000000       0.18333333 </v>
   <v>       0.28333333       0.25000000       0.18333333 </v>
   <v>       0.31666667       0.25000000       0.18333333 </v>
   <v>       0.35000000       0.25000000       0.18333333 </v>
   <v>       0.38333333       0.25000000       0.18333333 </v>
   <v>       0.41666667       0.25000000       0.18333333 </v>
   <v>       0.45000000       0.25000000       0.18333333 </v>
   <v>       0.48333333       0.25000000       0.18333333 </v>
   <v>       0.28333333       0.28333333       0.18333333 </v>
   <v>       0.31666667       0.28333333       0.18333333 </v>
   <v>       0.35000000       0.28333333       0.18333333 </v>
   <v>       0.38333333       0.28333333       0.18333333 </v>
   <v>       0.41666667       0.28333333       0.18333333 </v>
   <v>       0.45000000       0.28333333       0.18333333 </v>
   <v>       0.48333333       0.28333333       0.18333333 </v>
   <v>       0.31666667       0.31666667       0.18333333 </v>
   <v>       0.35000000       0.31666667       0.18333333 </v>
   <v>       0.38333333       0.31666667       0.18333333 </v>
   <v>       0.41666667       0.31666667       0.18333333 </v>
   <v>       0.45000000       0.31666667       0.18333333 </v>
   <v>       0.48333333       0.31666667       0.18333333 </v>
   <v>       0.35000000       0.35000000       0.18333333 </v>
   <v>       0.38333333       0.35000000       0.18333333 </v>
   <v>       0.41666667       0.35000000       0.18333333 </v>
   <v>       0.45000000       0.35000000       0.18333333 </v>
   <v>       0.48333333       0.35000000       0.18333333 </v>
   <v>       0.38333333       0.38333333       0.18333333 </v>
   <v>       0.41666667       0.38333333       0.18333333 </v>
   <v>       0.45000000       0.38333333       0.18333333 </v>
   <v>       0.48333333       0.38333333       0.18333333 </v>
   <v>       0.41666667       0.41666667       0.18333333 </v>
   <v>       0.45000000       0.41666667       0.18333333 </v>
   <v>       0.48333333       0.41666667       0.18333333 </v>
   <v>       0.45000000       0.45000000       0.18333333 </v>
   <v>       0.48333333       0.45000000       0.18333333 </v>
   <v>       0.48333333       0.48333333       0.18333333 </v>
   <v>       0.21666667       0.21666667       0.21666667 </v>
   <v>       0.25000000       0.21666667       0.21666667 </v>
   <v>       0.28333333       0.21666667       0.21666667 </v>
   <v>       0.31666667       0.21666667       0.21666667 </v>
   <v>       0.35000000       0.21666667       0.21666667 </v>
   <v>       0.38333333       0.21666667       0.21666667 </v>
   <v>       0.41666667       0.21666667       0.21666667 </v>
   <v>       0.45000000       0.21666667       0.21666667 </v>
   <v>       0.48333333       0.21666667       0.21666667 </v>
   <v>       0.25000000       0.25000000       0.21666667 </v>
   <v>       0.28333333       0.25000000       0.21666667 </v>
   <v>       0.31666667       0.25000000       0.21666667 </v>
   <v>       0.35000000       0.25000000       0.21666667 </v>
   <v>       0.38333333       0.25000000       0.21666667 </v>
   <v>       0.41666667       0.25000000       0.21666667 </v>
   <v>       0.45000000       0.25000000       0.21666667 </v>
   <v>       0.48333333       0.25000000       0.21666667 </v>
   <v>       0.28333333       0.28333333       0.21666667 </v>
   <v>       0.31666667       0.28333333       0.21666667 </v>
   <v>       0.35000000       0.28333333       0.21666667 </v>
   <v>       0.38333333       0.28333333       0.21666667 </v>
   <v>       0.41666667       0.28333333       0.21666667 </v>
   <v>       0.45000000       0.28333333       0.21666667 </v>
   <v>       0.48333333       0.28333333       0.21666667 </v>
   <v>       0.31666667       0.31666667       0.21666667 </v>
   <v>       0.35000000       0.31666667       0.21666667 </v>
   <v>       0.38333333       0.31666667       0.21666667 </v>
   <v>       0.41666667       0.31666667       0.21666667 </v>
   <v>       0.45000000       0.31666667       0.21666667 </v>
   <v>       0.48333333       0.31666667       0.21666667 </v>
   <v>       0.35000000       0.35000000       0.21666667 </v>
   <v>       0.38333333       0.35000000       0.21666667 </v>
   <v>       0.41666667       0.35000000       0.21666667 </v>
   <v>       0.45000000       0.35000000       0.21666667 </v>
   <v>       0.48333333       0.35000000       0.21666667 </v>
   <v>       0.38333333       0.38333333       0.21666667 </v>
   <v>       0.41666667       0.38333333       0.21666667 </v>
   <v>       0.45000000       0.38333333       0.21666667 </v>
   <v>       0.48333333       0.38333333       0.21666667 </v>
   <v>       0.41666667       0.41666667       0.21666667 </v>
   <v>       0.45000000       0.41666667       0.21666667 </v>
   <v>       0.48333333       0.41666667       0.21666667 </v>
   <v>       0.45000000       0.45000000       0.21666667 </v>
   <v>       0.48333333       0.45000000       0.21666667 </v>
   <v>       0.48333333       0.48333333       0.21666667 </v>
   <v>       0.25000000       0.25000000       0.25000000 </v>
   <v>       0.28333333       0.25000000       0.25000000 </v>
   <v>       0.31666667       0.25000000       0.25000000 </v>
   <v>       0.35000000       0.25000000       0.25000000 </v>
   <v>       0.38333333       0.25000000       0.25000000 </v>
   <v>       0.41666667       0.25000000       0.25000000 </v>
   <v>       0.45000000       0.25000000       0.25000000 </v>
   <v>       0.48333333       0.25000000       0.25000000 </v>
   <v>       0.28333333       0.28333333       0.25000000 </v>
   <v>       0.31666667       0.28333333       0.25000000 </v>
   <v>       0.35000000       0.28333333       0.25000000 </v>
   <v>       0.38333333       0.28333333       0.25000000 </v>
   <v>       0.41666667       0.28333333       0.25000000 </v>
   <v>       0.45000000       0.28333333       0.25000000 </v>
   <v>       0.48333333       0.28333333       0.25000000 </v>
   <v>       0.31666667       0.31666667       0.25000000 </v>
   <v>       0.35000000       0.31666667       0.25000000 </v>
   <v>       0.38333333       0.31666667       0.25000000 </v>
   <v>       0.41666667       0.31666667       0.25000000 </v>
   <v>       0.45000000       0.31666667       0.25000000 </v>
   <v>       0.48333333       0.31666667       0.25000000 </v>
   <v>       0.35000000       0.35000000       0.25000000 </v>
   <v>       0.38333333       0.35000000       0.25000000 </v>
   <v>       0.41666667       0.35000000       0.25000000 </v>
   <v>       0.45000000       0.35000000       0.25000000 </v>
   <v>       0.48333333       0.35000000       0.25000000 </v>
   <v>       0.38333333       0.38333333       0.25000000 </v>
   <v>       0.41666667       0.38333333       0.25000000 </v>
   <v>       0.45000000       0.38333333       0.25000000 </v>
   <v>       0.48333333       0.38333333       0.25000000 </v>
   <v>       0.41666667       0.41666667       0.25000000 </v>
   <v>       0.45000000       0.41666667       0.25000000 </v>
   <v>       0.48333333       0.41666667       0.25000000 </v>
   <v>       0.45000000       0.45000000       0.25000000 </v>
   <v>       0.48333333       0.45000000       0.25000000 </v>
   <v>       0.48333333       0.48333333       0.25000000 </v>
   <v>       0.28333333       0.28333333       0.28333333 </v>
   <v>       0.31666667       0.28333333       0.28333333 </v>
   <v>       0.35000000       0.28333333       0.28333333 </v>
   <v>       0.38333333       0.28333333       0.28333333 </v>
   <v>       0.41666667       0.28333333       0.28333333 </v>
   <v>       0.45000000       0.28333333       0.28333333 </v>
   <v>       0.48333333       0.28333333       0.28333333 </v>
   <v>       0.31666667       0.31666667       0.28333333 </v>
   <v>       0.35000000       0.31666667       0.28333333 </v>
   <v>       0.38333333       0.31666667       0.28333333 </v>
   <v>       0.41666667       0.31666667       0.28333333 </v>
   <v>       0.45000000       0.31666667       0.28333333 </v>
   <v>       0.48333333       0.31666667       0.28333333 </v>
   <v>       0.35000000       0.35000000       0.28333333 </v>
   <v>       0.38333333       0.35000000       0.28333333 </v>
   <v>       0.41666667       0.35000000       0.28333333 </v>
   <v>       0.45000000       0.35000000       0.28333333 </v>
   <v>       0.48333333       0.35000000       0.28333333 </v>
   <v>       0.38333333       0.38333333       0.28333333 </v>
   <v>       0.41666667       0.38333333       0.28333333 </v>
   <v>       0.45000000       0.38333333       0.28333333 </v>
   <v>       0.48333333       0.38333333       0.28333333 </v>
   <v>       0.41666667       0.41666667       0.28333333 </v>
   <v>       0.45000000       0.41666667       0.28333333 </v>
   <v>       0.48333333       0.41666667       0.28333333 </v>
   <v>       0.45000000       0.45000000       0.28333333 </v>
   <v>       0.48333333       0.45000000       0.28333333 </v>
   <v>       0.48333333       0.48333333       0.28333333 </v>
   <v>       0.31666667       0.31666667       0.31666667 </v>
   <v>       0.35000000       0.31666667       0.31666667 </v>
   <v>       0.38333333       0.31666667       0.31666667 </v>
   <v>       0.41666667       0.31666667       0.31666667 </v>
   <v>       0.45000000       0.31666667       0.31666667 </v>
   <v>       0.48333333       0.31666667       0.31666667 </v>
   <v>       0.35000000       0.35000000       0.31666667 </v>
   <v>       0.38333333       0.35000000       0.31666667 </v>
   <v>       0.41666667       0.35000000       0.31666667 </v>
   <v>       0.45000000       0.35000000       0.31666667 </v>
   <v>       0.48333333       0.35000000       0.31666667 </v>
   <v>       0.38333333       0.38333333       0.31666667 </v>
   <v>       0.41666667       0.38333333       0.31666667 </v>
   <v>       0.45000000       0.38333333       0.31666667 </v>
   <v>       0.48333333       0.38333333       0.31666667 </v>
   <v>       0.41666667       0.41666667       0.31666667 </v>
   <v>       0.45000000       0.41666667       0.31666667 </v>
   <v>       0.48333333       0.41666667       0.31666667 </v>
   <v>       0.45000000       0.45000000       0.31666667 </v>
   <v>       0.48333333       0.45000000       0.31666667 </v>
   <v>       0.48333333       0.48333333       0.31666667 </v>
   <v>       0.35000000       0.35000000       0.35000000 </v>
   <v>       0.38333333       0.35000000       0.35000000 </v>
   <v>       0.41666667       0.35000000       0.35000000 </v>
   <v>       0.45000000       0.35000000       0.35000000 </v>
   <v>       0.48333333       0.35000000       0.35000000 </v>
   <v>       0.38333333       0.38333333       0.35000000 </v>
   <v>       0.41666667       0.38333333       0.35000000 </v>
   <v>       0.45000000       0.38333333       0.35000000 </v>
   <v>       0.48333333       0.38333333       0.35000000 </v>
   <v>       0.41666667       0.41666667       0.35000000 </v>
   <v>       0.45000000       0.41666667       0.35000000 </v>
   <v>       0.48333333       0.41666667       0.35000000 </v>
   <v>       0.45000000       0.45000000       0.35000000 </v>
   <v>       0.48333333       0.45000000       0.35000000 </v>
   <v>       0.48333333       0.48333333       0.35000000 </v>
   <v>       0.38333333       0.38333333       0.38333333 </v>
   <v>       0.41666667       0.38333333       0.38333333 </v>
   <v>       0.45000000       0.38333333       0.38333333 </v>
   <v>       0.48333333       0.38333333       0.38333333 </v>
   <v>       0.41666667       0.41666667       0.38333333 </v>
   <v>       0.45000000       0.41666667       0.38333333 </v>
   <v>       0.48333333       0.41666667       0.38333333 </v>
   <v>       0.45000000       0.45000000       0.38333333 </v>
   <v>       0.48333333       0.45000000       0.38333333 </v>
   <v>       0.48333333       0.48333333       0.38333333 </v>
   <v>       0.41666667       0.41666667       0.41666667 </v>
   <v>       0.45000000       0.41666667       0.41666667 </v>
   <v>       0.48333333       0.41666667       0.41666667 </v>
   <v>       0.45000000       0.45000000       0.41666667 </v>
   <v>       0.48333333       0.45000000       0.41666667 </v>
   <v>       0.48333333       0.48333333       0.41666667 </v>
   <v>       0.45000000       0.45000000       0.45000000 </v>
   <v>       0.48333333       0.45000000       0.45000000 </v>
   <v>       0.48333333       0.48333333       0.45000000 </v>
   <v>       0.48333333       0.48333333       0.48333333 </v>
  </varray>
  <varray name="weights" >
   <v>       0.00029630 </v>
   <v>       0.00088889 </v>
   <v>       0.00088889 </v>
   <v>       0.00088889 </v>
   <v>       0.00088889 </v>
   <v>       0.00088889 </v>
   <v>       0.00088889 </v>
   <v>       0.00088889 </v>
   <v>       0.00088889 </v>
   <v>       0.00088889 </v>
   <v>       0.00088889 </v>
   <v>       0.00088889 </v>
   <v>       0.00088889 </v>
   <v>       0.00088889 </v>
   <v>       0.00088889 </v>
   <v>       0.00088889 </v>
   <v>       0.00177778 </v>
   <v>       0.00177778 </v>
   <v>       0.00177778 </v>
   <v>       0.00177778 </v>
   <v>       0.00177778 </v>
   <v>       0.00177778 </v>
   <v>       0.00177778 </v>
   <v>       0.00177778 </v>
   <v>       0.00177778 </v>
   <v>       0.00177778 </v>
   <v>       0.00177778 </v>
   <v>       0.00177778 </v>
   <v>       0.00177778 </v>
   <v>       0.00088889 </v>
   <v>       0.00177778 </v>
   <v>       0.00177778 </v>
   <v>       0.00177778 </v>
   <v>       0.00177778 </v>
   <v>       0.00177778 </v>
   <v>       0.00177778 </v>
   <v>       0.00177778 </v>
   <v>       0.00177778 </v>
   <v>       0.00177778 </v>
   <v>       0.00177778 </v>
   <v>       0.00177778 </v>
   <v>       0.00177778 </v>
   <v>       0.00088889 </v>
   <v>       0.00177778 </v>
   <v>       0.00177778 </v>
   <v>       0.00177778 </v>
   <v>       0.00177778 </v>
   <v>       0.00177778 </v>
   <v>       0.00177778 </v>
   <v>       0.00177778 </v>
   <v>       0.00177778 </v>
   <v>       0.00177778 </v>
   <v>       0.00177778 </v>
   <v>       0.00177778 </v>
   <v>       0.00088889 </v>
   <v>       0.00177778 </v>
   <v>       0.00177778 </v>
   <v>       0.00177778 </v>
   <v>       0.00177778 </v>
   <v>       0.00177778 </v>
   <v>       0.00177778 </v>
   <v>       0.00177778 </v>
   <v>       0.00177778 </v>
   <v>       0.00177778 </v>
   <v>       0.00177778 </v>
   <v>       0.00088889 </v>
   <v>       0.00177778 </v>
   <v>       0.00177778 </v>
   <v>       0.00177778 </v>
   <v>       0.00177778 </v>
   <v>       0.00177778 </v>
   <v>       0.00177778 </v>
   <v>       0.00177778 </v>
   <v>       0.00177778 </v>
   <v>       0.00177778 </v>
   <v>       0.00088889 </v>
   <v>       0.00177778 </v>
   <v>       0.00177778 </v>
   <v>       0.00177778 </v>
   <v>       0.00177778 </v>
   <v>       0.00177778 </v>
   <v>       0.00177778 </v>
   <v>       0.00177778 </v>
   <v>       0.00177778 </v>
   <v>       0.00088889 </v>
   <v>       0.00177778 </v>
   <v>       0.00177778 </v>
   <v>       0.00177778 </v>
   <v>       0.00177778 </v>
   <v>       0.00177778 </v>
   <v>       0.00177778 </v>
   <v>       0.00177778 </v>
   <v>       0.00088889 </v>
   <v>       0.00177778 </v>
   <v>       0.00177778 </v>
   <v>       0.00177778 </v>
   <v>       0.00177778 </v>
   <v>       0.00177778 </v>
   <v>       0.00177778 </v>
   <v>       0.00088889 </v>
   <v>       0.00177778 </v>
   <v>       0.00177778 </v>
   <v>       0.00177778 </v>
   <v>       0.00177778 </v>
   <v>       0.00177778 </v>
   <v>       0.00088889 </v>
   <v>       0.00177778 </v>
   <v>       0.00177778 </v>
   <v>       0.00177778 </v>
   <v>       0.00177778 </v>
   <v>       0.00088889 </v>
   <v>       0.00177778 </v>
   <v>       0.00177778 </v>
   <v>       0.00177778 </v>
   <v>       0.00088889 </v>
   <v>       0.00177778 </v>
   <v>       0.00177778 </v>
   <v>       0.00088889 </v>
   <v>       0.00177778 </v>
   <v>       0.00088889 </v>
   <v>       0.00029630 </v>
   <v>       0.00088889 </v>
   <v>       0.00088889 </v>
   <v>       0.00088889 </v>
   <v>       0.00088889 </v>
   <v>       0.00088889 </v>
   <v>       0.00088889 </v>
   <v>       0.00088889 </v>
   <v>       0.00088889 </v>
   <v>       0.00088889 </v>
   <v>       0.00088889 </v>
   <v>       0.00088889 </v>
   <v>       0.00088889 </v>
   <v>       0.00088889 </v>
   <v>       0.00088889 </v>
   <v>       0.00177778 </v>
   <v>       0.00177778 </v>
   <v>       0.00177778 </v>
   <v>       0.00177778 </v>
   <v>       0.00177778 </v>
   <v>       0.00177778 </v>
   <v>       0.00177778 </v>
   <v>       0.00177778 </v>
   <v>       0.00177778 </v>
   <v>       0.00177778 </v>
   <v>       0.00177778 </v>
   <v>       0.00177778 </v>
   <v>       0.00088889 </v>
   <v>       0.00177778 </v>
   <v>       0.00177778 </v>
   <v>       0.00177778 </v>
   <v>       0.00177778 </v>
   <v>       0.00177778 </v>
   <v>       0.00177778 </v>
   <v>       0.00177778 </v>
   <v>       0.00177778 </v>
   <v>       0.00177778 </v>
   <v>       0.00177778 </v>
   <v>       0.00177778 </v>
   <v>       0.00088889 </v>
   <v>       0.00177778 </v>
   <v>       0.00177778 </v>
   <v>       0.00177778 </v>
   <v>       0.00177778 </v>
   <v>       0.00177778 </v>
   <v>       0.00177778 </v>
   <v>       0.00177778 </v>
   <v>       0.00177778 </v>
   <v>       0.00177778 </v>
   <v>       0.00177778 </v>
   <v>       0.00088889 </v>
   <v>       0.00177778 </v>
   <v>       0.00177778 </v>
   <v>       0.00177778 </v>
   <v>       0.00177778 </v>
   <v>       0.00177778 </v>
   <v>       0.00177778 </v>
   <v>       0.00177778 </v>
   <v>       0.00177778 </v>
   <v>       0.00177778 </v>
   <v>       0.00088889 </v>
   <v>       0.00177778 </v>
   <v>       0.00177778 </v>
   <v>       0.00177778 </v>
   <v>       0.00177778 </v>
   <v>       0.00177778 </v>
   <v>       0.00177778 </v>
   <v>       0.00177778 </v>
   <v>       0.00177778 </v>
   <v>       0.00088889 </v>
   <v>       0.00177778 </v>
   <v>       0.00177778 </v>
   <v>       0.00177778 </v>
   <v>       0.00177778 </v>
   <v>       0.00177778 </v>
   <v>       0.00177778 </v>
   <v>       0.00177778 </v>
   <v>       0.00088889 </v>
   <v>       0.00177778 </v>
   <v>       0.00177778 </v>
   <v>       0.00177778 </v>
   <v>       0.00177778 </v>
   <v>       0.00177778 </v>
   <v>       0.00177778 </v>
   <v>       0.00088889 </v>
   <v>       0.00177778 </v>
   <v>       0.00177778 </v>
   <v>       0.00177778 </v>
   <v>       0.00177778 </v>
   <v>       0.00177778 </v>
   <v>       0.00088889 </v>
   <v>       0.00177778 </v>
   <v>       0.00177778 </v>
   <v>       0.00177778 </v>
   <v>       0.00177778 </v>
   <v>       0.00088889 </v>
   <v>       0.00177778 </v>
   <v>       0.00177778 </v>
   <v>       0.00177778 </v>
   <v>       0.00088889 </v>
   <v>       0.00177778 </v>
   <v>       0.00177778 </v>
   <v>       0.00088889 </v>
   <v>       0.00177778 </v>
   <v>       0.00088889 </v>
   <v>       0.00029630 </v>
   <v>       0.00088889 </v>
   <v>       0.00088889 </v>
   <v>       0.00088889 </v>
   <v>       0.00088889 </v>
   <v>       0.00088889 </v>
   <v>       0.00088889 </v>
   <v>       0.00088889 </v>
   <v>       0.00088889 </v>
   <v>       0.00088889 </v>
   <v>       0.00088889 </v>
   <v>       0.00088889 </v>
   <v>       0.00088889 </v>
   <v>       0.00088889 </v>
   <v>       0.00177778 </v>
   <v>       0.00177778 </v>
   <v>       0.00177778 </v>
   <v>       0.00177778 </v>
   <v>       0.00177778 </v>
   <v>       0.00177778 </v>
   <v>       0.00177778 </v>
   <v>       0.00177778 </v>
   <v>       0.00177778 </v>
   <v>       0.00177778 </v>
   <v>       0.00177778 </v>
   <v>       0.00088889 </v>
   <v>       0.00177778 </v>
   <v>       0.00177778 </v>
   <v>       0.00177778 </v>
   <v>       0.00177778 </v>
   <v>       0.00177778 </v>
   <v>       0.00177778 </v>
   <v>       0.00177778 </v>
   <v>       0.00177778 </v>
   <v>       0.00177778 </v>
   <v>       0.00177778 </v>
   <v>       0.00088889 </v>
   <v>       0.00177778 </v>
   <v>       0.00177778 </v>
   <v>       0.00177778 </v>
   <v>       0.00177778 </v>
   <v>       0.00177778 </v>
   <v>       0.00177778 </v>
   <v>       0.00177778 </v>
   <v>       0.00177778 </v>
   <v>       0.00177778 </v>
   <v>       0.00088889 </v>
   <v>       0.00177778 </v>
   <v>       0.00177778 </v>
   <v>       0.00177778 </v>
   <v>       0.00177778 </v>
   <v>       0.00177778 </v>
   <v>       0.00177778 </v>
   <v>       0.00177778 </v>
   <v>       0.00177778 </v>
   <v>       0.00088889 </v>
   <v>       0.00177778 </v>
   <v>       0.00177778 </v>
   <v>       0.00177778 </v>
   <v>       0.00177778 </v>
   <v>       0.00177778 </v>
   <v>       0.00177778 </v>
   <v>       0.00177778 </v>
   <v>       0.00088889 </v>
   <v>       0.00177778 </v>
   <v>       0.00177778 </v>
   <v>       0.00177778 </v>
   <v>       0.00177778 </v>
   <v>       0.00177778 </v>
   <v>       0.00177778 </v>
   <v>       0.00088889 </v>
   <v>       0.00177778 </v>
   <v>       0.00177778 </v>
   <v>       0.00177778 </v>
   <v>       0.00177778 </v>
   <v>       0.00177778 </v>
   <v>       0.00088889 </v>
   <v>       0.00177778 </v>
   <v>       0.00177778 </v>
   <v>       0.00177778 </v>
   <v>       0.00177778 </v>
   <v>       0.00088889 </v>
   <v>       0.00177778 </v>
   <v>       0.00177778 </v>
   <v>       0.00177778 </v>
   <v>       0.00088889 </v>
   <v>       0.00177778 </v>
   <v>       0.00177778 </v>
   <v>       0.00088889 </v>
   <v>       0.00177778 </v>
   <v>       0.00088889 </v>
   <v>       0.00029630 </v>
   <v>       0.00088889 </v>
   <v>       0.00088889 </v>
   <v>       0.00088889 </v>
   <v>       0.00088889 </v>
   <v>       0.00088889 </v>
   <v>       0.00088889 </v>
   <v>       0.00088889 </v>
   <v>       0.00088889 </v>
   <v>       0.00088889 </v>
   <v>       0.00088889 </v>
   <v>       0.00088889 </v>
   <v>       0.00088889 </v>
   <v>       0.00177778 </v>
   <v>       0.00177778 </v>
   <v>       0.00177778 </v>
   <v>       0.00177778 </v>
   <v>       0.00177778 </v>
   <v>       0.00177778 </v>
   <v>       0.00177778 </v>
   <v>       0.00177778 </v>
   <v>       0.00177778 </v>
   <v>       0.00177778 </v>
   <v>       0.00088889 </v>
   <v>       0.00177778 </v>
   <v>       0.00177778 </v>
   <v>       0.00177778 </v>
   <v>       0.00177778 </v>
   <v>       0.00177778 </v>
   <v>       0.00177778 </v>
   <v>       0.00177778 </v>
   <v>       0.00177778 </v>
   <v>       0.00177778 </v>
   <v>       0.00088889 </v>
   <v>       0.00177778 </v>
   <v>       0.00177778 </v>
   <v>       0.00177778 </v>
   <v>       0.00177778 </v>
   <v>       0.00177778 </v>
   <v>       0.00177778 </v>
   <v>       0.00177778 </v>
   <v>       0.00177778 </v>
   <v>       0.00088889 </v>
   <v>       0.00177778 </v>
   <v>       0.00177778 </v>
   <v>       0.00177778 </v>
   <v>       0.00177778 </v>
   <v>       0.00177778 </v>
   <v>       0.00177778 </v>
   <v>       0.00177778 </v>
   <v>       0.00088889 </v>
   <v>       0.00177778 </v>
   <v>       0.00177778 </v>
   <v>       0.00177778 </v>
   <v>       0.00177778 </v>
   <v>       0.00177778 </v>
   <v>       0.00177778 </v>
   <v>       0.00088889 </v>
   <v>       0.00177778 </v>
   <v>       0.00177778 </v>
   <v>       0.00177778 </v>
   <v>       0.00177778 </v>
   <v>       0.00177778 </v>
   <v>       0.00088889 </v>
   <v>       0.00177778 </v>
   <v>       0.00177778 </v>
   <v>       0.00177778 </v>
   <v>       0.00177778 </v>
   <v>       0.00088889 </v>
   <v>       0.00177778 </v>
   <v>       0.00177778 </v>
   <v>       0.00177778 </v>
   <v>       0.00088889 </v>
   <v>       0.00177778 </v>
   <v>       0.00177778 </v>
   <v>       0.00088889 </v>
   <v>       0.00177778 </v>
   <v>       0.00088889 </v>
   <v>       0.00029630 </v>
   <v>       0.00088889 </v>
   <v>       0.00088889 </v>
   <v>       0.00088889 </v>
   <v>       0.00088889 </v>
   <v>       0.00088889 </v>
   <v>       0.00088889 </v>
   <v>       0.00088889 </v>
   <v>       0.00088889 </v>
   <v>       0.00088889 </v>
   <v>       0.00088889 </v>
   <v>       0.00088889 </v>
   <v>       0.00177778 </v>
   <v>       0.00177778 </v>
   <v>       0.00177778 </v>
   <v>       0.00177778 </v>
   <v>       0.00177778 </v>
   <v>       0.00177778 </v>
   <v>       0.00177778 </v>
   <v>       0.00177778 </v>
   <v>       0.00177778 </v>
   <v>       0.00088889 </v>
   <v>       0.00177778 </v>
   <v>       0.00177778 </v>
   <v>       0.00177778 </v>
   <v>       0.00177778 </v>
   <v>       0.00177778 </v>
   <v>       0.00177778 </v>
   <v>       0.00177778 </v>
   <v>       0.00177778 </v>
   <v>       0.00088889 </v>
   <v>       0.00177778 </v>
   <v>       0.00177778 </v>
   <v>       0.00177778 </v>
   <v>       0.00177778 </v>
   <v>       0.00177778 </v>
   <v>       0.00177778 </v>
   <v>       0.00177778 </v>
   <v>       0.00088889 </v>
   <v>       0.00177778 </v>
   <v>       0.00177778 </v>
   <v>       0.00177778 </v>
   <v>       0.00177778 </v>
   <v>       0.00177778 </v>
   <v>       0.00177778 </v>
   <v>       0.00088889 </v>
   <v>       0.00177778 </v>
   <v>       0.00177778 </v>
   <v>       0.00177778 </v>
   <v>       0.00177778 </v>
   <v>       0.00177778 </v>
   <v>       0.00088889 </v>
   <v>       0.00177778 </v>
   <v>       0.00177778 </v>
   <v>       0.00177778 </v>
   <v>       0.00177778 </v>
   <v>       0.00088889 </v>
   <v>       0.00177778 </v>
   <v>       0.00177778 </v>
   <v>       0.00177778 </v>
   <v>       0.00088889 </v>
   <v>       0.00177778 </v>
   <v>       0.00177778 </v>
   <v>       0.00088889 </v>
   <v>       0.00177778 </v>
   <v>       0.00088889 </v>
   <v>       0.00029630 </v>
   <v>       0.00088889 </v>
   <v>       0.00088889 </v>
   <v>       0.00088889 </v>
   <v>       0.00088889 </v>
   <v>       0.00088889 </v>
   <v>       0.00088889 </v>
   <v>       0.00088889 </v>
   <v>       0.00088889 </v>
   <v>       0.00088889 </v>
   <v>       0.00088889 </v>
   <v>       0.00177778 </v>
   <v>       0.00177778 </v>
   <v>       0.00177778 </v>
   <v>       0.00177778 </v>
   <v>       0.00177778 </v>
   <v>       0.00177778 </v>
   <v>       0.00177778 </v>
   <v>       0.00177778 </v>
   <v>       0.00088889 </v>
   <v>       0.00177778 </v>
   <v>       0.00177778 </v>
   <v>       0.00177778 </v>
   <v>       0.00177778 </v>
   <v>       0.00177778 </v>
   <v>       0.00177778 </v>
   <v>       0.00177778 </v>
   <v>       0.00088889 </v>
   <v>       0.00177778 </v>
   <v>       0.00177778 </v>
   <v>       0.00177778 </v>
   <v>       0.00177778 </v>
   <v>       0.00177778 </v>
   <v>       0.00177778 </v>
   <v>       0.00088889 </v>
   <v>       0.00177778 </v>
   <v>       0.00177778 </v>
   <v>       0.00177778 </v>
   <v>       0.00177778 </v>
   <v>       0.00177778 </v>
   <v>       0.00088889 </v>
   <v>       0.00177778 </v>
   <v>       0.00177778 </v>
   <v>       0.00177778 </v>
   <v>       0.00177778 </v>
   <v>       0.00088889 </v>
   <v>       0.00177778 </v>
   <v>       0.00177778 </v>
   <v>       0.00177778 </v>
   <v>       0.00088889 </v>
   <v>       0.00177778 </v>
   <v>       0.00177778 </v>
   <v>       0.00088889 </v>
   <v>       0.00177778 </v>
   <v>       0.00088889 </v>
   <v>       0.00029630 </v>
   <v>       0.00088889 </v>
   <v>       0.00088889 </v>
   <v>       0.00088889 </v>
   <v>       0.00088889 </v>
   <v>       0.00088889 </v>
   <v>       0.00088889 </v>
   <v>       0.00088889 </v>
   <v>       0.00088889 </v>
   <v>       0.00088889 </v>
   <v>       0.00177778 </v>
   <v>       0.00177778 </v>
   <v>       0.00177778 </v>
   <v>       0.00177778 </v>
   <v>       0.00177778 </v>
   <v>       0.00177778 </v>
   <v>       0.00177778 </v>
   <v>       0.00088889 </v>
   <v>       0.00177778 </v>
   <v>       0.00177778 </v>
   <v>       0.00177778 </v>
   <v>       0.00177778 </v>
   <v>       0.00177778 </v>
   <v>       0.00177778 </v>
   <v>       0.00088889 </v>
   <v>       0.00177778 </v>
   <v>       0.00177778 </v>
   <v>       0.00177778 </v>
   <v>       0.00177778 </v>
   <v>       0.00177778 </v>
   <v>       0.00088889 </v>
   <v>       0.00177778 </v>
   <v>       0.00177778 </v>
   <v>       0.00177778 </v>
   <v>       0.00177778 </v>
   <v>       0.00088889 </v>
   <v>       0.00177778 </v>
   <v>       0.00177778 </v>
   <v>       0.00177778 </v>
   <v>       0.00088889 </v>
   <v>       0.00177778 </v>
   <v>       0.00177778 </v>
   <v>       0.00088889 </v>
   <v>       0.00177778 </v>
   <v>       0.00088889 </v>
   <v>       0.00029630 </v>
   <v>       0.00088889 </v>
   <v>       0.00088889 </v>
   <v>       0.00088889 </v>
   <v>       0.00088889 </v>
   <v>       0.00088889 </v>
   <v>       0.00088889 </v>
   <v>       0.00088889 </v>
   <v>       0.00088889 </v>
   <v>       0.00177778 </v>
   <v>       0.00177778 </v>
   <v>       0.00177778 </v>
   <v>       0.00177778 </v>
   <v>       0.00177778 </v>
   <v>       0.00177778 </v>
   <v>       0.00088889 </v>
   <v>       0.00177778 </v>
   <v>       0.00177778 </v>
   <v>       0.00177778 </v>
   <v>       0.00177778 </v>
   <v>       0.00177778 </v>
   <v>       0.00088889 </v>
   <v>       0.00177778 </v>
   <v>       0.00177778 </v>
   <v>       0.00177778 </v>
   <v>       0.00177778 </v>
   <v>       0.00088889 </v>
   <v>       0.00177778 </v>
   <v>       0.00177778 </v>
   <v>       0.00177778 </v>
   <v>       0.00088889 </v>
   <v>       0.00177778 </v>
   <v>       0.00177778 </v>
   <v>       0.00088889 </v>
   <v>       0.00177778 </v>
   <v>       0.00088889 </v>
   <v>       0.00029630 </v>
   <v>       0.00088889 </v>
   <v>       0.00088889 </v>
   <v>       0.00088889 </v>
   <v>       0.00088889 </v>
   <v>       0.00088889 </v>
   <v>       0.00088889 </v>
   <v>       0.00088889 </v>
   <v>       0.00177778 </v>
   <v>       0.00177778 </v>
   <v>       0.00177778 </v>
   <v>       0.00177778 </v>
   <v>       0.00177778 </v>
   <v>       0.00088889 </v>
   <v>       0.00177778 </v>
   <v>       0.00177778 </v>
   <v>       0.00177778 </v>
   <v>       0.00177778 </v>
   <v>       0.00088889 </v>
   <v>       0.00177778 </v>
   <v>       0.00177778 </v>
   <v>       0.00177778 </v>
   <v>       0.00088889 </v>
   <v>       0.00177778 </v>
   <v>       0.00177778 </v>
   <v>       0.00088889 </v>
   <v>       0.00177778 </v>
   <v>       0.00088889 </v>
   <v>       0.00029630 </v>
   <v>       0.00088889 </v>
   <v>       0.00088889 </v>
   <v>       0.00088889 </v>
   <v>       0.00088889 </v>
   <v>       0.00088889 </v>
   <v>       0.00088889 </v>
   <v>       0.00177778 </v>
   <v>       0.00177778 </v>
   <v>       0.00177778 </v>
   <v>       0.00177778 </v>
   <v>       0.00088889 </v>
   <v>       0.00177778 </v>
   <v>       0.00177778 </v>
   <v>       0.00177778 </v>
   <v>       0.00088889 </v>
   <v>       0.00177778 </v>
   <v>       0.00177778 </v>
   <v>       0.00088889 </v>
   <v>       0.00177778 </v>
   <v>       0.00088889 </v>
   <v>       0.00029630 </v>
   <v>       0.00088889 </v>
   <v>       0.00088889 </v>
   <v>       0.00088889 </v>
   <v>       0.00088889 </v>
   <v>       0.00088889 </v>
   <v>       0.00177778 </v>
   <v>       0.00177778 </v>
   <v>       0.00177778 </v>
   <v>       0.00088889 </v>
   <v>       0.00177778 </v>
   <v>       0.00177778 </v>
   <v>       0.00088889 </v>
   <v>       0.00177778 </v>
   <v>       0.00088889 </v>
   <v>       0.00029630 </v>
   <v>       0.00088889 </v>
   <v>       0.00088889 </v>
   <v>       0.00088889 </v>
   <v>       0.00088889 </v>
   <v>       0.00177778 </v>
   <v>       0.00177778 </v>
   <v>       0.00088889 </v>
   <v>       0.00177778 </v>
   <v>       0.00088889 </v>
   <v>       0.00029630 </v>
   <v>       0.00088889 </v>
   <v>       0.00088889 </v>
   <v>       0.00088889 </v>
   <v>       0.00177778 </v>
   <v>       0.00088889 </v>
   <v>       0.00029630 </v>
   <v>       0.00088889 </v>
   <v>       0.00088889 </v>
   <v>       0.00029630 </v>
  </varray>
 </kpoints>
 <parameters>
  <separator name="general" >
   <i type="string" name="SYSTEM">unknown system</i>
   <i type="logical" name="LCOMPAT"> F  </i>
  </separator>
  <separator name="electronic" >
   <i type="string" name="PREC">accura</i>
   <i name="ENMAX">    300.00000000</i>
   <i name="ENAUG">    291.05200000</i>
   <i name="EDIFF">      0.00000001</i>
   <i type="int" name="IALGO">    38</i>
   <i type="int" name="IWAVPR">    11</i>
   <i type="int" name="NBANDS">    12</i>
   <i type="int" name="NBANDSLOW">    -1</i>
   <i type="int" name="NBANDSHIGH">    -1</i>
   <i name="NELECT">     12.00000000</i>
   <i type="int" name="TURBO">     0</i>
   <i type="int" name="IRESTART">     0</i>
   <i type="int" name="NREBOOT">     0</i>
   <i type="int" name="NMIN">     0</i>
   <i name="EREF">      0.00000000</i>
   <separator name="electronic smearing" >
    <i type="int" name="ISMEAR">     1</i>
    <i name="SIGMA">      0.20000000</i>
    <i name="KSPACING">      0.50000000</i>
    <i type="logical" name="KGAMMA"> T  </i>
    <i type="logical" name="KBLOWUP"> T  </i>
   </separator>
   <separator name="electronic projectors" >
    <i type="logical" name="LREAL"> F  </i>
    <v name="ROPT">      0.00000000</v>
    <i type="int" name="LMAXPAW">  -100</i>
    <i type="int" name="LMAXMIX">     2</i>
    <i type="logical" name="NLSPLINE"> F  </i>
   </separator>
   <separator name="electronic startup" >
    <i type="int" name="ISTART">     0</i>
    <i type="int" name="ICHARG">     2</i>
    <i type="int" name="INIWAV">     1</i>
   </separator>
   <separator name="electronic spin" >
    <i type="int" name="ISPIN">     1</i>
    <i type="logical" name="LNONCOLLINEAR"> F  </i>
    <v name="MAGMOM">      1.00000000      1.00000000      1.00000000      1.00000000</v>
    <i name="NUPDOWN">     -1.00000000</i>
    <i type="logical" name="LSORBIT"> F  </i>
    <v name="SAXIS">      0.00000000      0.00000000      1.00000000</v>
    <i type="logical" name="LSPIRAL"> F  </i>
    <v name="QSPIRAL">      0.00000000      0.00000000      0.00000000</v>
    <i type="logical" name="LZEROZ"> F  </i>
   </separator>
   <separator name="electronic exchange-correlation" >
    <i type="logical" name="LASPH"> F  </i>
    <i type="logical" name="LMETAGGA"> F  </i>
   </separator>
   <separator name="electronic convergence" >
    <i type="int" name="NELM">   300</i>
    <i type="int" name="NELMDL">    -5</i>
    <i type="int" name="NELMIN">     5</i>
    <i name="ENINI">    300.00000000</i>
    <separator name="electronic convergence detail" >
     <i type="logical" name="LDIAG"> T  </i>
     <i type="logical" name="LSUBROT"> F  </i>
     <i name="WEIMIN">      0.00100000</i>
     <i name="EBREAK">      0.00000000</i>
     <i name="DEPER">      0.30000000</i>
     <i type="int" name="NRMM">     4</i>
     <i name="TIME">      0.40000000</i>
    </separator>
   </separator>
   <separator name="electronic mixer" >
    <i name="AMIX">      0.40000000</i>
    <i name="BMIX">      1.00000000</i>
    <i name="AMIN">      0.10000000</i>
    <i name="AMIX_MAG">      1.60000000</i>
    <i name="BMIX_MAG">      1.00000000</i>
    <separator name="electronic mixer details" >
     <i type="int" name="IMIX">     4</i>
     <i type="logical" name="MIXFIRST"> F  </i>
     <i type="int" name="MAXMIX">   -45</i>
     <i name="WC">    100.00000000</i>
     <i type="int" name="INIMIX">     1</i>
     <i type="int" name="MIXPRE">     1</i>
     <i type="int" name="MREMOVE">     5</i>
    </separator>
   </separator>
   <separator name="electronic dipolcorrection" >
    <i type="logical" name="LDIPOL"> F  </i>
    <i type="logical" name="LMONO"> F  </i>
    <i type="int" name="IDIPOL">     0</i>
    <i name="EPSILON">      1.00000000</i>
    <v name="DIPOL">   -100.00000000   -100.00000000   -100.00000000</v>
    <i name="EFIELD">      0.00000000</i>
   </separator>
  </separator>
  <separator name="grids" >
   <i type="int" name="NGX">    24</i>
   <i type="int" name="NGY">    24</i>
   <i type="int" name="NGZ">    24</i>
   <i type="int" name="NGXF">    48</i>
   <i type="int" name="NGYF">    48</i>
   <i type="int" name="NGZF">    48</i>
   <i type="logical" name="ADDGRID"> T  </i>
  </separator>
  <separator name="ionic" >
   <i type="int" name="NSW">   500</i>
   <i type="int" name="IBRION">     2</i>
   <i type="int" name="MDALGO">     0</i>
   <i type="int" name="ISIF">     2</i>
   <i name="PSTRESS">      0.00000000</i>
   <i name="EDIFFG">     -0.00000001</i>
   <i type="int" name="NFREE">     1</i>
   <i name="POTIM">      0.50000000</i>
   <i name="SMASS">     -3.00000000</i>
   <i name="SCALEE">      1.00000000</i>
  </separator>
  <separator name="ionic md" >
   <i name="TEBEG">      0.00010000</i>
   <i name="TEEND">      0.00010000</i>
   <i type="int" name="NBLOCK">     1</i>
   <i type="int" name="KBLOCK">   500</i>
   <i type="int" name="NPACO">   256</i>
   <i name="APACO">     10.00000000</i>
  </separator>
  <separator name="symmetry" >
   <i type="int" name="ISYM">     2</i>
   <i name="SYMPREC">      0.00001000</i>
  </separator>
  <separator name="dos" >
   <i type="int" name="LORBIT">     0</i>
   <v name="RWIGS">     -1.00000000</v>
   <i type="int" name="NEDOS">   301</i>
   <i name="EMIN">     10.00000000</i>
   <i name="EMAX">    -10.00000000</i>
   <i name="EFERMI">      0.00000000</i>
  </separator>
  <separator name="writing" >
   <i type="int" name="NWRITE">     2</i>
   <i type="logical" name="LWAVE"> F  </i>
   <i type="logical" name="LDOWNSAMPLE"> F  </i>
   <i type="logical" name="LCHARG"> F  </i>
   <i type="logical" name="LPARD"> F  </i>
   <i type="logical" name="LVTOT"> F  </i>
   <i type="logical" name="LVHAR"> F  </i>
   <i type="logical" name="LELF"> F  </i>
   <i type="logical" name="LOPTICS"> F  </i>
   <v name="STM">      0.00000000      0.00000000      0.00000000      0.00000000      0.00000000      0.00000000      0.00000000</v>
  </separator>
  <separator name="performance" >
   <i type="int" name="NPAR">     4</i>
   <i type="int" name="NSIM">     4</i>
   <i type="int" name="NBLK">    -1</i>
   <i type="logical" name="LPLANE"> T  </i>
   <i type="logical" name="LSCALAPACK"> T  </i>
   <i type="logical" name="LSCAAWARE"> F  </i>
   <i type="logical" name="LSCALU"> F  </i>
   <i type="logical" name="LASYNC"> F  </i>
   <i type="logical" name="LORBITALREAL"> F  </i>
  </separator>
  <separator name="miscellaneous" >
   <i type="int" name="IDIOT">     3</i>
   <i type="int" name="PHON_NSTRUCT">    -1</i>
   <i type="logical" name="LMUSIC"> F  </i>
   <v name="POMASS">     26.98100000</v>
   <v name="DARWINR">      0.00000000</v>
   <v name="DARWINV">      1.00000000</v>
   <i type="logical" name="LCORR"> T  </i>
  </separator>
  <i type="logical" name="GGA_COMPAT"> T  </i>
  <i type="logical" name="LBERRY"> F  </i>
  <i type="int" name="ICORELEVEL">     0</i>
  <i type="logical" name="LDAU"> F  </i>
  <i type="int" name="I_CONSTRAINED_M">     0</i>
  <separator name="electronic exchange-correlation" >
   <i type="string" name="GGA">--</i>
   <i type="int" name="VOSKOWN">     0</i>
   <i type="logical" name="LHFCALC"> F  </i>
   <i type="string" name="PRECFOCK"></i>
   <i type="logical" name="LSYMGRAD"> F  </i>
   <i type="logical" name="LHFONE"> F  </i>
   <i type="logical" name="LRHFCALC"> F  </i>
   <i type="logical" name="LTHOMAS"> F  </i>
   <i type="logical" name="LMODELHF"> F  </i>
   <i type="logical" name="LFOCKACE"> F  </i>
   <i name="ENCUT4O">     -1.00000000</i>
   <i type="int" name="EXXOEP">     0</i>
   <i type="int" name="FOURORBIT">     0</i>
   <i name="AEXX">      0.00000000</i>
   <i name="HFALPHA">      0.00000000</i>
   <i name="MCALPHA">      0.00000000</i>
   <i name="ALDAX">      1.00000000</i>
   <i name="AGGAX">      1.00000000</i>
   <i name="ALDAC">      1.00000000</i>
   <i name="AGGAC">      1.00000000</i>
   <i type="int" name="NKREDX">     1</i>
   <i type="int" name="NKREDY">     1</i>
   <i type="int" name="NKREDZ">     1</i>
   <i type="logical" name="SHIFTRED"> F  </i>
   <i type="logical" name="ODDONLY"> F  </i>
   <i type="logical" name="EVENONLY"> F  </i>
   <i type="int" name="LMAXFOCK">     0</i>
   <i type="int" name="NMAXFOCKAE">     0</i>
   <i type="logical" name="LFOCKAEDFT"> F  </i>
   <i name="HFSCREEN">      0.00000000</i>
   <i name="HFSCREENC">      0.00000000</i>
   <i type="int" name="NBANDSGWLOW">     0</i>
  </separator>
  <separator name="vdW DFT" >
   <i type="logical" name="LUSE_VDW"> F  </i>
   <i name="Zab_VDW">     -0.84910000</i>
   <i name="PARAM1">      0.12340000</i>
   <i name="PARAM2">      1.00000000</i>
   <i name="PARAM3">      0.00000000</i>
  </separator>
  <separator name="model GW" >
   <i type="int" name="MODEL_GW">     0</i>
   <i name="MODEL_EPS0">      9.30092628</i>
   <i name="MODEL_ALPHA">      1.00000000</i>
  </separator>
  <separator name="linear response parameters" >
   <i type="logical" name="LEPSILON"> F  </i>
   <i type="logical" name="LRPA"> F  </i>
   <i type="logical" name="LNABLA"> F  </i>
   <i type="logical" name="LVEL"> F  </i>
   <i name="CSHIFT">      0.10000000</i>
   <i name="OMEGAMAX">     -1.00000000</i>
   <i name="DEG_THRESHOLD">      0.00200000</i>
   <i name="RTIME">     -0.10000000</i>
   <i name="WPLASMAI">      0.00000000</i>
   <v name="DFIELD">      0.00000000      0.00000000      0.00000000</v>
   <v name="WPLASMA">      0.00000000      0.00000000      0.00000000      0.00000000      0.00000000      0.00000000      0.00000000      0.00000000      0.00000000</v>
  </separator>
  <separator name="orbital magnetization" >
   <i type="logical" name="NUCIND"> F  </i>
   <v name="MAGPOS">      0.00000000      0.00000000      0.00000000</v>
   <i type="logical" name="LNICSALL"> T  </i>
   <i type="logical" name="ORBITALMAG"> F  </i>
   <i type="logical" name="LMAGBLOCH"> F  </i>
   <i type="logical" name="LCHIMAG"> F  </i>
   <i type="logical" name="LGAUGE"> T  </i>
   <i type="int" name="MAGATOM">     0</i>
   <v name="MAGDIPOL">      0.00000000      0.00000000      0.00000000</v>
   <v name="AVECCONST">      0.00000000      0.00000000      0.00000000</v>
  </separator>
  <separator name="response functions" >
   <i type="logical" name="LFINITE_TEMPERATURE"> F  </i>
   <i type="logical" name="LADDER"> F  </i>
   <i type="logical" name="LRPAFORCE"> F  </i>
   <i type="logical" name="LFXC"> F  </i>
   <i type="logical" name="LHARTREE"> T  </i>
   <i type="int" name="IBSE">     0</i>
   <v type="int" name="KPOINT">    -1     0     0     0</v>
   <i type="logical" name="LTCTC"> F  </i>
   <i type="logical" name="LTCTE"> F  </i>
   <i type="logical" name="LTETE"> F  </i>
   <i type="logical" name="LTRIPLET"> F  </i>
   <i type="logical" name="LFXCEPS"> F  </i>
   <i type="logical" name="LFXHEG"> F  </i>
   <i type="int" name="NATURALO">     2</i>
   <i type="logical" name="LHOLEGF"> F  </i>
   <i type="logical" name="L2ORDER"> F  </i>
   <i type="logical" name="LDMP1"> F  </i>
   <i type="logical" name="LMP2LT"> F  </i>
   <i type="logical" name="LSMP2LT"> F  </i>
   <i type="logical" name="LGWLF"> F  </i>
   <i name="ENCUTGW">     -2.00000000</i>
   <i name="ENCUTGWSOFT">     -2.00000000</i>
   <i name="ENCUTLF">     -1.00000000</i>
   <i type="logical" name="LESF_SPLINES"> F  </i>
   <i type="int" name="LMAXMP2">    -1</i>
   <i name="SCISSOR">      0.00000000</i>
   <i type="int" name="NOMEGA">     0</i>
   <i type="int" name="NOMEGAR">     0</i>
   <i type="int" name="NBANDSGW">    -1</i>
   <i type="int" name="NBANDSO">    -1</i>
   <i type="int" name="NBANDSV">    -1</i>
   <i type="int" name="NELMGW">     1</i>
   <i type="int" name="NELMHF">     1</i>
   <i type="int" name="DIM">     3</i>
   <i type="int" name="IESPILON">     4</i>
   <i type="int" name="ANTIRES">     0</i>
   <i name="OMEGAMAX">    -30.00000000</i>
   <i name="OMEGAMIN">    -30.00000000</i>
   <i name="OMEGATL">   -200.00000000</i>
   <i type="int" name="OMEGAGRID">     0</i>
   <i name="CSHIFT">     -0.10000000</i>
   <i type="logical" name="LSELFENERGY"> F  </i>
   <i type="logical" name="LSPECTRAL"> F  </i>
   <i type="logical" name="LSPECTRALGW"> F  </i>
   <i type="logical" name="LSINGLES"> F  </i>
   <i type="logical" name="LFERMIGW"> F  </i>
   <i type="logical" name="ODDONLYGW"> F  </i>
   <i type="logical" name="EVENONLYGW"> F  </i>
   <i type="int" name="NKREDLFX">     1</i>
   <i type="int" name="NKREDLFY">     1</i>
   <i type="int" name="NKREDLFZ">     1</i>
   <i type="int" name="MAXMEM">  2800</i>
   <i type="int" name="TELESCOPE">     0</i>
   <i type="int" name="NTAUPAR">    -1</i>
   <i type="int" name="NOMEGAPAR">    -1</i>
   <i name="DAMP_NEWTON">      0.80000001</i>
   <i name="LAMBDA">      1.00000000</i>
  </separator>
  <separator name="External order field" >
   <i name="OFIELD_KAPPA">      0.00000000</i>
   <v name="OFIELD_K">      0.00000000      0.00000000      0.00000000</v>
   <i name="OFIELD_Q6_NEAR">      0.00000000</i>
   <i name="OFIELD_Q6_FAR">      0.00000000</i>
   <i name="OFIELD_A">      0.00000000</i>
  </separator>
  <separator name="optional k-points parameters" >
   <i type="int" name="KPOINTS_OPT_MODE">     1</i>
   <i type="logical" name="LKPOINTS_OPT"> F  </i>
  </separator>
 </parameters>
 <atominfo>
  <atoms>       4 </atoms>
  <types>       1 </types>
  <array name="atoms" >
   <dimension dim="1">ion</dimension>
   <field type="string">element</field>
   <field type="int">atomtype</field>
   <set>
    <rc><c>Al</c><c>   1</c></rc>
    <rc><c>Al</c><c>   1</c></rc>
    <rc><c>Al</c><c>   1</c></rc>
    <rc><c>Al</c><c>   1</c></rc>
   </set>
  </array>
  <array name="atomtypes" >
   <dimension dim="1">type</dimension>
   <field type="int">atomspertype</field>
   <field type="string">element</field>
   <field>mass</field>
   <field>valence</field>
   <field type="string">pseudopotential</field>
   <set>
    <rc><c>   4</c><c>Al</c><c>     26.98100000</c><c>      3.00000000</c><c>  PAW_PBE Al 04Jan2001                  </c></rc>
   </set>
  </array>
 </atominfo>
 <structure name="initialpos" >
  <crystal>
   <varray name="basis" >
    <v>       3.95802301       0.00000000       0.00000000 </v>
    <v>       0.00000000       3.95802301       0.00000000 </v>
    <v>       0.00000000       0.00000000       3.95802301 </v>
   </varray>
   <i name="volume">     62.00617518 </i>
   <varray name="rec_basis" >
    <v>       0.25265139      -0.00000000       0.00000000 </v>
    <v>       0.00000000       0.25265139       0.00000000 </v>
    <v>      -0.00000000      -0.00000000       0.25265139 </v>
   </varray>
  </crystal>
  <varray name="positions" >
   <v>       0.00000000       0.00000000       0.00000000 </v>
   <v>       0.00000000       0.50000000       0.50000000 </v>
   <v>       0.50000000       0.00000000       0.50000000 </v>
   <v>       0.50000000       0.50000000       0.00000000 </v>
[...]
       <r>    2.4714    1.0000 </r>
       <r>    2.7717    1.0000 </r>
       <r>    3.8959    1.0000 </r>
       <r>    3.8959    1.0000 </r>
       <r>    4.3859    1.0000 </r>
       <r>    4.3859    1.0000 </r>
       <r>    5.4995    1.0000 </r>
       <r>    5.7946    1.0000 </r>
       <r>   18.4205    0.0000 </r>
       <r>   18.4205    0.0000 </r>
       <r>   18.7669    0.0000 </r>
       <r>   18.7669    0.0000 </r>
      </set>
      <set comment="kpoint 674">
       <r>    2.4513    1.0000 </r>
       <r>    3.3449    1.0000 </r>
       <r>    3.3449    1.0000 </r>
       <r>    3.8764    1.0000 </r>
       <r>    4.3657    1.0000 </r>
       <r>    4.8940    1.0000 </r>
       <r>    4.8940    1.0000 </r>
       <r>    5.7750    1.0000 </r>
       <r>   18.4782    0.0000 </r>
       <r>   18.9304    0.0000 </r>
       <r>   18.9305    0.0000 </r>
       <r>   19.1136    0.0000 </r>
      </set>
      <set comment="kpoint 675">
       <r>    2.7317    1.0000 </r>
       <r>    3.0302    1.0000 </r>
       <r>    3.6111    1.0000 </r>
       <r>    3.8571    1.0000 </r>
       <r>    4.3454    1.0000 </r>
       <r>    4.5903    1.0000 </r>
       <r>    5.1659    1.0000 </r>
       <r>    5.4602    1.0000 </r>
       <r>   18.6919    0.0000 </r>
       <r>   18.8727    0.0000 </r>
       <r>   19.2260    0.0000 </r>
       <r>   19.2926    0.0000 </r>
      </set>
      <set comment="kpoint 676">
       <r>    3.0102    1.0000 </r>
       <r>    3.3052    1.0000 </r>
       <r>    3.3052    1.0000 </r>
       <r>    3.5914    1.0000 </r>
       <r>    4.5703    1.0000 </r>
       <r>    4.8543    1.0000 </r>
       <r>    4.8543    1.0000 </r>
       <r>    5.1461    1.0000 </r>
       <r>   18.9227    0.0000 </r>
       <r>   19.1307    0.0000 </r>
       <r>   19.1307    0.0000 </r>
       <r>   19.3594    0.0000 </r>
      </set>
      <set comment="kpoint 677">
       <r>    2.7117    1.0000 </r>
       <r>    3.5914    1.0000 </r>
       <r>    3.5914    1.0000 </r>
       <r>    3.5914    1.0000 </r>
       <r>    4.5704    1.0000 </r>
       <r>    4.5704    1.0000 </r>
       <r>    4.5704    1.0000 </r>
       <r>    5.4405    1.0000 </r>
       <r>   19.1898    0.0000 </r>
       <r>   19.1898    0.0000 </r>
       <r>   19.1900    0.0000 </r>
       <r>   19.4464    0.0000 </r>
      </set>
      <set comment="kpoint 678">
       <r>    2.9903    1.0000 </r>
       <r>    3.2854    1.0000 </r>
       <r>    3.8181    1.0000 </r>
       <r>    3.8181    1.0000 </r>
       <r>    4.3050    1.0000 </r>
       <r>    4.3050    1.0000 </r>
       <r>    4.8345    1.0000 </r>
       <r>    5.1264    1.0000 </r>
       <r>   19.3591    0.0000 </r>
       <r>   19.3591    0.0000 </r>
       <r>   19.5518    0.0000 </r>
       <r>   19.5551    0.0000 </r>
      </set>
      <set comment="kpoint 679">
       <r>    3.2655    1.0000 </r>
       <r>    3.5519    1.0000 </r>
       <r>    3.5519    1.0000 </r>
       <r>    3.7986    1.0000 </r>
       <r>    4.2847    1.0000 </r>
       <r>    4.5303    1.0000 </r>
       <r>    4.5303    1.0000 </r>
       <r>    4.8146    1.0000 </r>
       <r>   19.5893    0.0000 </r>
       <r>   19.7409    0.0000 </r>
       <r>   19.7412    0.0000 </r>
       <r>   19.9489    0.0000 </r>
      </set>
      <set comment="kpoint 680">
       <r>    3.5321    1.0000 </r>
       <r>    3.7791    1.0000 </r>
       <r>    3.7791    1.0000 </r>
       <r>    3.7791    1.0000 </r>
       <r>    4.2644    1.0000 </r>
       <r>    4.2644    1.0000 </r>
       <r>    4.2644    1.0000 </r>
       <r>    4.5103    1.0000 </r>
       <r>   20.1827    0.0000 </r>
       <r>   20.1847    0.0000 </r>
       <r>   20.1863    0.0000 </r>
       <r>   20.1885    0.0000 </r>
      </set>
     </set>
    </set>
   </array>
  </eigenvalues>
  <separator name="orbital magnetization" >
   <v name="MAGDIPOLOUT">      0.00000000      0.00000000      0.00000000</v>
  </separator>
  <dos>
   <i name="efermi">      8.68687063 </i>
   <total>
    <array>
     <dimension dim="1">gridpoints</dimension>
     <dimension dim="2">spin</dimension>
     <field>energy</field>
     <field>total</field>
     <field>integrated</field>
     <set>
      <set comment="spin 1">
       <r>    -4.8969     0.0000     0.0000 </r>
       <r>    -4.8066     0.0000     0.0000 </r>
       <r>    -4.7164     0.0000     0.0000 </r>
       <r>    -4.6261     0.0000     0.0000 </r>
       <r>    -4.5358    -0.0000    -0.0000 </r>
       <r>    -4.4455    -0.0000    -0.0000 </r>
       <r>    -4.3552    -0.0000    -0.0000 </r>
       <r>    -4.2649    -0.0000    -0.0000 </r>
       <r>    -4.1747    -0.0000    -0.0000 </r>
       <r>    -4.0844    -0.0000    -0.0000 </r>
       <r>    -3.9941    -0.0000    -0.0000 </r>
       <r>    -3.9038    -0.0000    -0.0000 </r>
       <r>    -3.8135    -0.0000    -0.0000 </r>
       <r>    -3.7232    -0.0000    -0.0000 </r>
       <r>    -3.6329    -0.0000    -0.0000 </r>
       <r>    -3.5427    -0.0000    -0.0000 </r>
       <r>    -3.4524    -0.0000    -0.0000 </r>
       <r>    -3.3621    -0.0001    -0.0000 </r>
       <r>    -3.2718    -0.0006    -0.0001 </r>
       <r>    -3.1815    -0.0024    -0.0003 </r>
       <r>    -3.0912    -0.0050    -0.0007 </r>
       <r>    -3.0010    -0.0010    -0.0008 </r>
       <r>    -2.9107     0.0242     0.0014 </r>
       <r>    -2.8204     0.0770     0.0083 </r>
       <r>    -2.7301     0.1423     0.0212 </r>
       <r>    -2.6398     0.1994     0.0392 </r>
       <r>    -2.5495     0.2421     0.0610 </r>
       <r>    -2.4592     0.2756     0.0859 </r>
       <r>    -2.3690     0.3049     0.1134 </r>
       <r>    -2.2787     0.3318     0.1434 </r>
       <r>    -2.1884     0.3568     0.1756 </r>
       <r>    -2.0981     0.3803     0.2099 </r>
       <r>    -2.0078     0.4026     0.2463 </r>
       <r>    -1.9175     0.4238     0.2845 </r>
       <r>    -1.8273     0.4439     0.3246 </r>
       <r>    -1.7370     0.4634     0.3665 </r>
       <r>    -1.6467     0.4821     0.4100 </r>
       <r>    -1.5564     0.4998     0.4551 </r>
       <r>    -1.4661     0.5178     0.5019 </r>
       <r>    -1.3758     0.5343     0.5501 </r>
       <r>    -1.2855     0.5504     0.5998 </r>
       <r>    -1.1953     0.5677     0.6510 </r>
       <r>    -1.1050     0.5823     0.7036 </r>
       <r>    -1.0147     0.5969     0.7575 </r>
       <r>    -0.9244     0.6143     0.8130 </r>
       <r>    -0.8341     0.6276     0.8696 </r>
       <r>    -0.7438     0.6398     0.9274 </r>
       <r>    -0.6535     0.6574     0.9868 </r>
       <r>    -0.5633     0.6720     1.0474 </r>
       <r>    -0.4730     0.6806     1.1089 </r>
       <r>    -0.3827     0.6960     1.1717 </r>
       <r>    -0.2924     0.7147     1.2362 </r>
       <r>    -0.2021     0.7227     1.3015 </r>
       <r>    -0.1118     0.7313     1.3675 </r>
       <r>    -0.0216     0.7506     1.4353 </r>
       <r>     0.0687     0.7664     1.5045 </r>
       <r>     0.1590     0.7714     1.5741 </r>
       <r>     0.2493     0.7793     1.6445 </r>
       <r>     0.3396     0.8007     1.7168 </r>
       <r>     0.4299     0.8178     1.7906 </r>
       <r>     0.5202     0.8174     1.8644 </r>
       <r>     0.6104     0.8243     1.9388 </r>
       <r>     0.7007     0.8490     2.0155 </r>
       <r>     0.7910     0.8651     2.0936 </r>
       <r>     0.8813     0.8653     2.1717 </r>
       <r>     0.9716     0.8697     2.2502 </r>
       <r>     1.0619     0.8878     2.3304 </r>
       <r>     1.1521     0.9107     2.4126 </r>
       <r>     1.2424     0.9195     2.4956 </r>
       <r>     1.3327     0.9123     2.5780 </r>
       <r>     1.4230     0.9211     2.6612 </r>
       <r>     1.5133     0.9540     2.7473 </r>
       <r>     1.6036     0.9694     2.8348 </r>
       <r>     1.6939     0.9598     2.9215 </r>
       <r>     1.7841     0.9619     3.0083 </r>
       <r>     1.8744     0.9841     3.0972 </r>
       <r>     1.9647     1.0065     3.1880 </r>
       <r>     2.0550     1.0175     3.2799 </r>
       <r>     2.1453     1.0158     3.3716 </r>
       <r>     2.2356     1.0120     3.4630 </r>
       <r>     2.3258     1.0286     3.5558 </r>
       <r>     2.4161     1.0640     3.6519 </r>
       <r>     2.5064     1.0783     3.7493 </r>
       <r>     2.5967     1.0592     3.8449 </r>
       <r>     2.6870     1.0543     3.9401 </r>
       <r>     2.7773     1.0888     4.0384 </r>
       <r>     2.8676     1.1192     4.1394 </r>
       <r>     2.9578     1.1191     4.2405 </r>
       <r>     3.0481     1.1152     4.3412 </r>
       <r>     3.1384     1.1197     4.4423 </r>
       <r>     3.2287     1.1299     4.5443 </r>
       <r>     3.3190     1.1544     4.6485 </r>
       <r>     3.4093     1.1837     4.7554 </r>
       <r>     3.4995     1.1894     4.8627 </r>
       <r>     3.5898     1.1713     4.9685 </r>
       <r>     3.6801     1.1760     5.0747 </r>
       <r>     3.7704     1.2273     5.1855 </r>
       <r>     3.8607     1.2750     5.3006 </r>
       <r>     3.9510     1.2621     5.4145 </r>
       <r>     4.0413     1.2112     5.5239 </r>
       <r>     4.1315     1.1881     5.6311 </r>
       <r>     4.2218     1.2050     5.7399 </r>
       <r>     4.3121     1.2298     5.8510 </r>
       <r>     4.4024     1.2442     5.9633 </r>
       <r>     4.4927     1.2560     6.0767 </r>
       <r>     4.5830     1.2660     6.1910 </r>
       <r>     4.6732     1.2644     6.3052 </r>
       <r>     4.7635     1.2759     6.4203 </r>
       <r>     4.8538     1.3185     6.5394 </r>
       <r>     4.9441     1.3461     6.6609 </r>
       <r>     5.0344     1.3291     6.7809 </r>
       <r>     5.1247     1.3107     6.8992 </r>
       <r>     5.2150     1.3389     7.0201 </r>
       <r>     5.3052     1.3952     7.1461 </r>
       <r>     5.3955     1.4172     7.2740 </r>
       <r>     5.4858     1.4078     7.4011 </r>
       <r>     5.5761     1.4311     7.5304 </r>
       <r>     5.6664     1.4888     7.6648 </r>
       <r>     5.7567     1.5133     7.8014 </r>
       <r>     5.8469     1.4809     7.9351 </r>
       <r>     5.9372     1.4477     8.0658 </r>
       <r>     6.0275     1.4521     8.1969 </r>
       <r>     6.1178     1.4548     8.3282 </r>
       <r>     6.2081     1.4244     8.4568 </r>
       <r>     6.2984     1.3938     8.5827 </r>
       <r>     6.3887     1.3889     8.7081 </r>
       <r>     6.4789     1.3886     8.8334 </r>
       <r>     6.5692     1.3712     8.9572 </r>
       <r>     6.6595     1.3460     9.0788 </r>
       <r>     6.7498     1.3313     9.1990 </r>
       <r>     6.8401     1.3314     9.3192 </r>
       <r>     6.9304     1.3374     9.4399 </r>
       <r>     7.0206     1.3438     9.5612 </r>
       <r>     7.1109     1.3617     9.6842 </r>
       <r>     7.2012     1.3984     9.8104 </r>
       <r>     7.2915     1.4300     9.9396 </r>
       <r>     7.3818     1.4387    10.0694 </r>
       <r>     7.4721     1.4565    10.2009 </r>
       <r>     7.5624     1.5132    10.3376 </r>
       <r>     7.6526     1.5686    10.4792 </r>
       <r>     7.7429     1.5739    10.6213 </r>
       <r>     7.8332     1.5451    10.7608 </r>
       <r>     7.9235     1.5144    10.8975 </r>
       <r>     8.0138     1.4945    11.0324 </r>
       <r>     8.1041     1.4790    11.1660 </r>
       <r>     8.1943     1.4445    11.2964 </r>
       <r>     8.2846     1.3969    11.4225 </r>
       <r>     8.3749     1.3746    11.5466 </r>
       <r>     8.4652     1.3933    11.6724 </r>
       <r>     8.5555     1.4356    11.8020 </r>
       <r>     8.6458     1.4919    11.9367 </r>
       <r>     8.7361     1.5578    12.0774 </r>
       <r>     8.8263     1.6162    12.2233 </r>
       <r>     8.9166     1.6527    12.3725 </r>
       <r>     9.0069     1.6488    12.5213 </r>
       <r>     9.0972     1.6039    12.6662 </r>
       <r>     9.1875     1.5772    12.8086 </r>
       <r>     9.2778     1.6112    12.9540 </r>
       <r>     9.3680     1.6436    13.1024 </r>
       <r>     9.4583     1.6252    13.2491 </r>
       <r>     9.5486     1.6227    13.3957 </r>
       <r>     9.6389     1.6688    13.5463 </r>
       <r>     9.7292     1.6805    13.6980 </r>
       <r>     9.8195     1.6032    13.8428 </r>
       <r>     9.9098     1.4992    13.9782 </r>
       <r>    10.0000     1.4913    14.1128 </r>
       <r>    10.0903     1.6321    14.2601 </r>
       <r>    10.1806     1.7891    14.4217 </r>
       <r>    10.2709     1.7726    14.5817 </r>
       <r>    10.3612     1.6041    14.7265 </r>
       <r>    10.4515     1.4781    14.8600 </r>
       <r>    10.5417     1.5228    14.9975 </r>
       <r>    10.6320     1.6964    15.1506 </r>
       <r>    10.7223     1.8324    15.3161 </r>
       <r>    10.8126     1.8178    15.4802 </r>
       <r>    10.9029     1.7096    15.6345 </r>
       <r>    10.9932     1.6294    15.7817 </r>
       <r>    11.0835     1.6337    15.9292 </r>
       <r>    11.1737     1.6882    16.0816 </r>
       <r>    11.2640     1.7373    16.2384 </r>
       <r>    11.3543     1.7794    16.3991 </r>
       <r>    11.4446     1.8167    16.5631 </r>
       <r>    11.5349     1.8101    16.7265 </r>
       <r>    11.6252     1.7451    16.8841 </r>
       <r>    11.7154     1.6968    17.0373 </r>
       <r>    11.8057     1.7407    17.1944 </r>
       <r>    11.8960     1.8159    17.3584 </r>
       <r>    11.9863     1.8315    17.5237 </r>
       <r>    12.0766     1.8060    17.6868 </r>
       <r>    12.1669     1.7952    17.8489 </r>
       <r>    12.2572     1.8200    18.0132 </r>
       <r>    12.3474     1.8543    18.1806 </r>
       <r>    12.4377     1.8605    18.3486 </r>
       <r>    12.5280     1.8437    18.5150 </r>
       <r>    12.6183     1.8215    18.6795 </r>
       <r>    12.7086     1.8219    18.8440 </r>
       <r>    12.7989     1.8695    19.0128 </r>
       <r>    12.8891     1.9157    19.1857 </r>
       <r>    12.9794     1.9111    19.3583 </r>
       <r>    13.0697     1.8980    19.5296 </r>
       <r>    13.1600     1.9120    19.7023 </r>
       <r>    13.2503     1.9291    19.8764 </r>
       <r>    13.3406     1.9318    20.0508 </r>
       <r>    13.4309     1.9214    20.2243 </r>
       <r>    13.5211     1.9102    20.3968 </r>
       <r>    13.6114     1.9269    20.5707 </r>
       <r>    13.7017     1.9886    20.7503 </r>
       <r>    13.7920     2.0421    20.9346 </r>
       <r>    13.8823     2.0059    21.1157 </r>
       <r>    13.9726     1.9004    21.2873 </r>
       <r>    14.0628     1.7984    21.4497 </r>
       <r>    14.1531     1.7225    21.6052 </r>
       <r>    14.2434     1.6691    21.7559 </r>
       <r>    14.3337     1.6084    21.9011 </r>
       <r>    14.4240     1.5247    22.0388 </r>
       <r>    14.5143     1.4315    22.1680 </r>
       <r>    14.6046     1.3071    22.2860 </r>
       <r>    14.6948     1.1455    22.3894 </r>
       <r>    14.7851     1.0060    22.4803 </r>
       <r>    14.8754     0.9344    22.5646 </r>
       <r>    14.9657     0.9086    22.6467 </r>
       <r>    15.0560     0.8857    22.7266 </r>
       <r>    15.1463     0.8429    22.8027 </r>
       <r>    15.2365     0.7751    22.8727 </r>
       <r>    15.3268     0.7058    22.9364 </r>
       <r>    15.4171     0.6588    22.9959 </r>
       <r>    15.5074     0.6323    23.0530 </r>
       <r>    15.5977     0.6080    23.1079 </r>
       <r>    15.6880     0.5592    23.1584 </r>
       <r>    15.7783     0.5077    23.2042 </r>
       <r>    15.8685     0.4968    23.2491 </r>
       <r>    15.9588     0.4991    23.2941 </r>
       <r>    16.0491     0.4729    23.3368 </r>
       <r>    16.1394     0.4361    23.3762 </r>
       <r>    16.2297     0.4126    23.4135 </r>
       <r>    16.3200     0.3930    23.4489 </r>
       <r>    16.4103     0.3714    23.4825 </r>
       <r>    16.5005     0.3613    23.5151 </r>
       <r>    16.5908     0.3548    23.5471 </r>
       <r>    16.6811     0.3303    23.5769 </r>
       <r>    16.7714     0.2980    23.6039 </r>
       <r>    16.8617     0.2788    23.6290 </r>
       <r>    16.9520     0.2759    23.6539 </r>
       <r>    17.0422     0.2808    23.6793 </r>
       <r>    17.1325     0.2706    23.7037 </r>
       <r>    17.2228     0.2369    23.7251 </r>
       <r>    17.3131     0.2030    23.7434 </r>
       <r>    17.4034     0.1943    23.7610 </r>
       <r>    17.4937     0.2113    23.7801 </r>
       <r>    17.5840     0.2164    23.7996 </r>
       <r>    17.6742     0.1876    23.8165 </r>
       <r>    17.7645     0.1586    23.8309 </r>
       <r>    17.8548     0.1578    23.8451 </r>
       <r>    17.9451     0.1673    23.8602 </r>
       <r>    18.0354     0.1557    23.8743 </r>
       <r>    18.1257     0.1245    23.8855 </r>
       <r>    18.2159     0.1062    23.8951 </r>
       <r>    18.3062     0.1116    23.9052 </r>
       <r>    18.3965     0.1199    23.9160 </r>
       <r>    18.4868     0.1118    23.9261 </r>
       <r>    18.5771     0.0879    23.9340 </r>
       <r>    18.6674     0.0702    23.9404 </r>
       <r>    18.7577     0.0724    23.9469 </r>
       <r>    18.8479     0.0800    23.9541 </r>
       <r>    18.9382     0.0748    23.9609 </r>
       <r>    19.0285     0.0578    23.9661 </r>
       <r>    19.1188     0.0469    23.9703 </r>
       <r>    19.2091     0.0503    23.9749 </r>
       <r>    19.2994     0.0550    23.9798 </r>
       <r>    19.3896     0.0486    23.9842 </r>
       <r>    19.4799     0.0361    23.9875 </r>
       <r>    19.5702     0.0285    23.9900 </r>
       <r>    19.6605     0.0256    23.9924 </r>
       <r>    19.7508     0.0217    23.9943 </r>
       <r>    19.8411     0.0157    23.9957 </r>
       <r>    19.9314     0.0104    23.9967 </r>
       <r>    20.0216     0.0080    23.9974 </r>
       <r>    20.1119     0.0086    23.9982 </r>
       <r>    20.2022     0.0098    23.9991 </r>
       <r>    20.2925     0.0079    23.9998 </r>
       <r>    20.3828     0.0033    24.0001 </r>
       <r>    20.4731     0.0001    24.0001 </r>
       <r>    20.5633    -0.0005    24.0000 </r>
       <r>    20.6536    -0.0002    24.0000 </r>
       <r>    20.7439    -0.0001    24.0000 </r>
       <r>    20.8342    -0.0000    24.0000 </r>
       <r>    20.9245    -0.0000    24.0000 </r>
       <r>    21.0148    -0.0000    24.0000 </r>
       <r>    21.1051    -0.0000    24.0000 </r>
       <r>    21.1953    -0.0000    24.0000 </r>
       <r>    21.2856    -0.0000    24.0000 </r>
       <r>    21.3759    -0.0000    24.0000 </r>
       <r>    21.4662    -0.0000    24.0000 </r>
       <r>    21.5565     0.0000    24.0000 </r>
       <r>    21.6468     0.0000    24.0000 </r>
       <r>    21.7370     0.0000    24.0000 </r>
       <r>    21.8273     0.0000    24.0000 </r>
       <r>    21.9176     0.0000    24.0000 </r>
       <r>    22.0079     0.0000    24.0000 </r>
       <r>    22.0982     0.0000    24.0000 </r>
       <r>    22.1885     0.0000    24.0000 </r>
      </set>
     </set>
    </array>
   </total>
  </dos>
 </calculation>
 <structure name="finalpos" >
  <crystal>
   <varray name="basis" >
    <v>       3.95802301       0.00000000       0.00000000 </v>
    <v>       0.00000000       3.95802301       0.00000000 </v>
    <v>       0.00000000       0.00000000       3.95802301 </v>
   </varray>
   <i name="volume">     62.00617518 </i>
   <varray name="rec_basis" >
    <v>       0.25265139      -0.00000000       0.00000000 </v>
    <v>       0.00000000       0.25265139       0.00000000 </v>
    <v>      -0.00000000      -0.00000000       0.25265139 </v>
   </varray>
  </crystal>
  <varray name="positions" >
   <v>       0.00000000       0.00000000       0.00000000 </v>
   <v>       0.00000000       0.50000000       0.50000000 </v>
   <v>       0.50000000       0.00000000       0.50000000 </v>
   <v>       0.50000000       0.50000000       0.00000000 </v>
  </varray>
 </structure>
</modeling>
