 vasp.6.3.2 27Jun22 (build Aug 12 2022 00:53:59) complex                        
  
 executed on               tv2STD date 2025.07.01  00:10:15
 running   48 mpi-ranks, with    1 threads/rank
 distrk:  each k-point on   48 cores,    1 groups
 distr:  one band on NCORE=  12 cores,    4 groups


--------------------------------------------------------------------------------------------------------


 INCAR:
   ADDGRID = True
   ALGO = Normal
   EDIFF = 1E-8
   EDIFFG = -1E-8
   ENCUT = 300
   IBRION = 2
   ISIF = 2
   ISMEAR = 1
   LREAL = False
   LWAVE = False
   LCHARG = False
   NELM = 300
   NELMIN = 5
   NSW = 500
   PREC = Accurate
   SIGMA = 0.2
   NPAR = 4 3

 POTCAR:    PAW_PBE Al 04Jan2001                  
 POTCAR:    PAW_PBE Al 04Jan2001                  
   SHA256 =  17880443556af62b473fe41b62a467bd001ad55d2cabe504a3f22e34d4e9db96 Al/POTCAR             
   COPYR  = (c) Copyright 04Jan2001 Georg Kresse                                                    
   COPYR  = This file is part of the software VASP. Any use, copying, and all other rights are regul
   COPYR  = If you do not have a valid VASP license, you may not use, copy or distribute this file. 
   VRHFIN =Al: s2p1                                                                                 
   LEXCH  = PE                                                                                      
   EATOM  =    53.5387 eV,    3.9350 Ry                                                             
                                                                                                    
   TITEL  = PAW_PBE Al 04Jan2001                                                                    
   LULTRA =        F    use ultrasoft PP ?                                                          
   IUNSCR =        1    unscreen: 0-lin 1-nonlin 2-no                                               
   RPACOR =    1.500    partial core radius                                                         
   POMASS =   26.981; ZVAL   =    3.000    mass and valenz                                          
   RCORE  =    1.900    outmost cutoff radius                                                       
   RWIGS  =    2.650; RWIGS  =    1.402    wigner-seitz radius (au A)                               
   ENMAX  =  240.300; ENMIN  =  180.225 eV                                                          
   ICORE  =        2    local potential                                                             
   LCOR   =        T    correct aug charges                                                         
   LPAW   =        T    paw PP                                                                      
   EAUG   =  291.052                                                                                
   DEXC   =    0.000                                                                                
   RMAX   =    1.939    core radius for proj-oper                                                   
   RAUG   =    1.300    factor for augmentation sphere                                              
   RDEP   =    1.966    radius for radial grids                                                     
   RDEPT  =    1.856    core radius for aug-charge                                                  
                                                                                                    
   Atomic configuration                                                                             
    6 entries                                                                                       
     n  l   j            E        occ.                                                              
     1  0  0.50     -1511.1048   2.0000                                                             
     2  0  0.50      -108.1629   2.0000                                                             
     2  1  1.50       -69.6402   6.0000                                                             
     3  0  0.50        -7.7528   2.0000                                                             
     3  1  1.50        -2.7121   1.0000                                                             
     3  2  2.50        -2.7212   0.0000                                                             
   Description                                                                                      
     l       E           TYP  RCUT    TYP  RCUT                                                     
     0     -7.7528455     23  1.900                                                                 
     0     -3.3096929     23  1.900                                                                 
     1     -2.7120682     23  1.900                                                                 
     1     13.6058260     23  1.900                                                                 
     2     -2.7211652      7  1.900                                                                 
  local pseudopotential read in
  partial core-charges read in
  partial kinetic energy density read in
  atomic valenz-charges read in
  non local Contribution for L=           0  read in
    real space projection operators read in
  non local Contribution for L=           0  read in
    real space projection operators read in
  non local Contribution for L=           1  read in
    real space projection operators read in
  non local Contribution for L=           1  read in
    real space projection operators read in
    PAW grid and wavefunctions read in
 
   number of l-projection  operators is LMAX  =           4
   number of lm-projection operators is LMMAX =           8
 
  PAW_PBE Al 04Jan2001                  :
 energy of atom  1       EATOM=  -53.5387
 kinetic energy error for atom=    0.0011 (will be added to EATOM!!)
 
 
 POSCAR: Al4
  positions in direct lattice
  velocities in cartesian coordinates
 exchange correlation table for  LEXCH =        8
   RHO(1)=    0.500       N(1)  =     2000
   RHO(2)=  100.500       N(2)  =     4000
 


--------------------------------------------------------------------------------------------------------


 ion  position               nearest neighbor table
   1  0.000  0.000  0.000-   2 2.91   3 2.91   2 2.91   3 2.91   2 2.91   4 2.91   2 2.91   3 2.91
                             4 2.91   3 2.91   4 2.91   4 2.91
   2  0.000  0.500  0.500-   1 2.91   4 2.91   1 2.91   4 2.91   1 2.91   3 2.91   1 2.91   3 2.91
                             4 2.91   4 2.91   3 2.91   3 2.91
   3  0.500  0.000  0.500-   1 2.91   4 2.91   1 2.91   4 2.91   2 2.91   4 2.91   4 2.91   1 2.91
                             2 2.91   1 2.91   2 2.91   2 2.91
   4  0.500  0.500  0.000-   2 2.91   3 2.91   2 2.91   3 2.91   1 2.91   3 2.91   3 2.91   1 2.91
                             2 2.91   2 2.91   1 2.91   1 2.91
 
  LATTYP: Found a simple cubic cell.
 ALAT       =     4.1195749664
  
  Lattice vectors:
  
 A1 = (   4.1195749664,   0.0000000000,   0.0000000000)
 A2 = (   0.0000000000,   4.1195749664,   0.0000000000)
 A3 = (   0.0000000000,   0.0000000000,   4.1195749664)


Analysis of symmetry for initial positions (statically):
=====================================================================
 Subroutine PRICEL returns following result:
 
  LATTYP: Found a face centered cubic cell.
 ALAT       =     4.1195749664
  
  Lattice vectors:
  
 A1 = (   2.0597874832,  -2.0597874832,   0.0000000000)
 A2 = (   2.0597874832,   0.0000000000,   2.0597874832)
 A3 = (  -0.0000000000,  -2.0597874832,   2.0597874832)
 
   4 primitive cells build up your supercell.
 

 Routine SETGRP: Setting up the symmetry group for a 
 simple cubic supercell.


 Subroutine GETGRP returns: Found 48 space group operations
 (whereof 48 operations were pure point group operations)
 out of a pool of 48 trial point group operations.


The static configuration has the point symmetry O_h .


Analysis of symmetry for dynamics (positions and initial velocities):
=====================================================================
 Subroutine PRICEL returns following result:
 
  LATTYP: Found a face centered cubic cell.
 ALAT       =     4.1195749664
  
  Lattice vectors:
  
 A1 = (   2.0597874832,  -2.0597874832,   0.0000000000)
 A2 = (   2.0597874832,   0.0000000000,   2.0597874832)
 A3 = (  -0.0000000000,  -2.0597874832,   2.0597874832)
 
   4 primitive cells build up your supercell.
 

 Routine SETGRP: Setting up the symmetry group for a 
 simple cubic supercell.


 Subroutine GETGRP returns: Found 48 space group operations
 (whereof 48 operations were pure point group operations)
 out of a pool of 48 trial point group operations.


The dynamic configuration has the point symmetry O_h .


 Subroutine INISYM returns: Found 48 space group operations
 (whereof 48 operations are pure point group operations),
 and found     4 'primitive' translations


----------------------------------------------------------------------------------------

                                     Primitive cell                                     

  volume of cell :      17.4782

  direct lattice vectors                    reciprocal lattice vectors
     2.059787483 -2.059787483  0.000000000     0.242743489 -0.242743489 -0.242743489
     2.059787483  0.000000000  2.059787483     0.242743489  0.242743489  0.242743489
    -0.000000000 -2.059787483  2.059787483    -0.242743489 -0.242743489  0.242743489

  length of vectors
     2.912979394  2.912979394  2.912979394     0.420444056  0.420444056  0.420444056

  position of ions in fractional coordinates (direct lattice)
     0.000000000  0.000000000  0.000000000

  ion indices of the primitive-cell ions
   primitive index   ion index
                 1           1

----------------------------------------------------------------------------------------

 
 
 KPOINTS: Automatic kpoint scheme                 

Automatic generation of k-mesh.
 Grid dimensions read from file:
 generate k-points for:   30   30   30

 Generating k-lattice:

  Cartesian coordinates                     Fractional coordinates (reciprocal lattice)
     0.008091450 -0.000000000  0.000000000     0.033333333 -0.000000000  0.000000000
     0.000000000  0.008091450  0.000000000     0.000000000  0.033333333  0.000000000
    -0.000000000 -0.000000000  0.008091450    -0.000000000 -0.000000000  0.033333333

  Length of vectors
     0.008091450  0.008091450  0.008091450

  Shift w.r.t. Gamma in fractional coordinates (k-lattice)
     0.500000000  0.500000000  0.500000000

 
 Subroutine IBZKPT returns following result:
 ===========================================
 
 Found    680 irreducible k-points:
 
 Following reciprocal coordinates:
            Coordinates               Weight
  0.016667  0.016667  0.016667      8.000000
  0.050000  0.016667  0.016667     24.000000
  0.083333  0.016667  0.016667     24.000000
  0.116667  0.016667  0.016667     24.000000
  0.150000  0.016667  0.016667     24.000000
  0.183333  0.016667  0.016667     24.000000
  0.216667  0.016667  0.016667     24.000000
  0.250000  0.016667  0.016667     24.000000
  0.283333  0.016667  0.016667     24.000000
  0.316667  0.016667  0.016667     24.000000
  0.350000  0.016667  0.016667     24.000000
  0.383333  0.016667  0.016667     24.000000
  0.416667  0.016667  0.016667     24.000000
  0.450000  0.016667  0.016667     24.000000
  0.483333  0.016667  0.016667     24.000000
  0.050000  0.050000  0.016667     24.000000
  0.083333  0.050000  0.016667     48.000000
  0.116667  0.050000  0.016667     48.000000
  0.150000  0.050000  0.016667     48.000000
  0.183333  0.050000  0.016667     48.000000
  0.216667  0.050000  0.016667     48.000000
  0.250000  0.050000  0.016667     48.000000
  0.283333  0.050000  0.016667     48.000000
  0.316667  0.050000  0.016667     48.000000
  0.350000  0.050000  0.016667     48.000000
  0.383333  0.050000  0.016667     48.000000
  0.416667  0.050000  0.016667     48.000000
  0.450000  0.050000  0.016667     48.000000
  0.483333  0.050000  0.016667     48.000000
  0.083333  0.083333  0.016667     24.000000
  0.116667  0.083333  0.016667     48.000000
  0.150000  0.083333  0.016667     48.000000
  0.183333  0.083333  0.016667     48.000000
  0.216667  0.083333  0.016667     48.000000
  0.250000  0.083333  0.016667     48.000000
  0.283333  0.083333  0.016667     48.000000
  0.316667  0.083333  0.016667     48.000000
  0.350000  0.083333  0.016667     48.000000
  0.383333  0.083333  0.016667     48.000000
  0.416667  0.083333  0.016667     48.000000
  0.450000  0.083333  0.016667     48.000000
  0.483333  0.083333  0.016667     48.000000
  0.116667  0.116667  0.016667     24.000000
  0.150000  0.116667  0.016667     48.000000
  0.183333  0.116667  0.016667     48.000000
  0.216667  0.116667  0.016667     48.000000
  0.250000  0.116667  0.016667     48.000000
  0.283333  0.116667  0.016667     48.000000
  0.316667  0.116667  0.016667     48.000000
  0.350000  0.116667  0.016667     48.000000
  0.383333  0.116667  0.016667     48.000000
  0.416667  0.116667  0.016667     48.000000
  0.450000  0.116667  0.016667     48.000000
  0.483333  0.116667  0.016667     48.000000
  0.150000  0.150000  0.016667     24.000000
  0.183333  0.150000  0.016667     48.000000
  0.216667  0.150000  0.016667     48.000000
  0.250000  0.150000  0.016667     48.000000
  0.283333  0.150000  0.016667     48.000000
  0.316667  0.150000  0.016667     48.000000
  0.350000  0.150000  0.016667     48.000000
  0.383333  0.150000  0.016667     48.000000
  0.416667  0.150000  0.016667     48.000000
  0.450000  0.150000  0.016667     48.000000
  0.483333  0.150000  0.016667     48.000000
  0.183333  0.183333  0.016667     24.000000
  0.216667  0.183333  0.016667     48.000000
  0.250000  0.183333  0.016667     48.000000
  0.283333  0.183333  0.016667     48.000000
  0.316667  0.183333  0.016667     48.000000
  0.350000  0.183333  0.016667     48.000000
  0.383333  0.183333  0.016667     48.000000
  0.416667  0.183333  0.016667     48.000000
  0.450000  0.183333  0.016667     48.000000
  0.483333  0.183333  0.016667     48.000000
  0.216667  0.216667  0.016667     24.000000
  0.250000  0.216667  0.016667     48.000000
  0.283333  0.216667  0.016667     48.000000
  0.316667  0.216667  0.016667     48.000000
  0.350000  0.216667  0.016667     48.000000
  0.383333  0.216667  0.016667     48.000000
  0.416667  0.216667  0.016667     48.000000
  0.450000  0.216667  0.016667     48.000000
  0.483333  0.216667  0.016667     48.000000
  0.250000  0.250000  0.016667     24.000000
  0.283333  0.250000  0.016667     48.000000
  0.316667  0.250000  0.016667     48.000000
  0.350000  0.250000  0.016667     48.000000
  0.383333  0.250000  0.016667     48.000000
  0.416667  0.250000  0.016667     48.000000
  0.450000  0.250000  0.016667     48.000000
  0.483333  0.250000  0.016667     48.000000
  0.283333  0.283333  0.016667     24.000000
  0.316667  0.283333  0.016667     48.000000
  0.350000  0.283333  0.016667     48.000000
  0.383333  0.283333  0.016667     48.000000
  0.416667  0.283333  0.016667     48.000000
  0.450000  0.283333  0.016667     48.000000
  0.483333  0.283333  0.016667     48.000000
  0.316667  0.316667  0.016667     24.000000
  0.350000  0.316667  0.016667     48.000000
  0.383333  0.316667  0.016667     48.000000
  0.416667  0.316667  0.016667     48.000000
  0.450000  0.316667  0.016667     48.000000
  0.483333  0.316667  0.016667     48.000000
  0.350000  0.350000  0.016667     24.000000
  0.383333  0.350000  0.016667     48.000000
  0.416667  0.350000  0.016667     48.000000
  0.450000  0.350000  0.016667     48.000000
  0.483333  0.350000  0.016667     48.000000
  0.383333  0.383333  0.016667     24.000000
  0.416667  0.383333  0.016667     48.000000
  0.450000  0.383333  0.016667     48.000000
  0.483333  0.383333  0.016667     48.000000
  0.416667  0.416667  0.016667     24.000000
  0.450000  0.416667  0.016667     48.000000
  0.483333  0.416667  0.016667     48.000000
  0.450000  0.450000  0.016667     24.000000
  0.483333  0.450000  0.016667     48.000000
  0.483333  0.483333  0.016667     24.000000
  0.050000  0.050000  0.050000      8.000000
  0.083333  0.050000  0.050000     24.000000
  0.116667  0.050000  0.050000     24.000000
  0.150000  0.050000  0.050000     24.000000
  0.183333  0.050000  0.050000     24.000000
  0.216667  0.050000  0.050000     24.000000
  0.250000  0.050000  0.050000     24.000000
  0.283333  0.050000  0.050000     24.000000
  0.316667  0.050000  0.050000     24.000000
  0.350000  0.050000  0.050000     24.000000
  0.383333  0.050000  0.050000     24.000000
  0.416667  0.050000  0.050000     24.000000
  0.450000  0.050000  0.050000     24.000000
  0.483333  0.050000  0.050000     24.000000
  0.083333  0.083333  0.050000     24.000000
  0.116667  0.083333  0.050000     48.000000
  0.150000  0.083333  0.050000     48.000000
  0.183333  0.083333  0.050000     48.000000
  0.216667  0.083333  0.050000     48.000000
  0.250000  0.083333  0.050000     48.000000
  0.283333  0.083333  0.050000     48.000000
  0.316667  0.083333  0.050000     48.000000
  0.350000  0.083333  0.050000     48.000000
  0.383333  0.083333  0.050000     48.000000
  0.416667  0.083333  0.050000     48.000000
  0.450000  0.083333  0.050000     48.000000
  0.483333  0.083333  0.050000     48.000000
  0.116667  0.116667  0.050000     24.000000
  0.150000  0.116667  0.050000     48.000000
  0.183333  0.116667  0.050000     48.000000
  0.216667  0.116667  0.050000     48.000000
  0.250000  0.116667  0.050000     48.000000
  0.283333  0.116667  0.050000     48.000000
  0.316667  0.116667  0.050000     48.000000
  0.350000  0.116667  0.050000     48.000000
  0.383333  0.116667  0.050000     48.000000
  0.416667  0.116667  0.050000     48.000000
  0.450000  0.116667  0.050000     48.000000
  0.483333  0.116667  0.050000     48.000000
  0.150000  0.150000  0.050000     24.000000
  0.183333  0.150000  0.050000     48.000000
  0.216667  0.150000  0.050000     48.000000
  0.250000  0.150000  0.050000     48.000000
  0.283333  0.150000  0.050000     48.000000
  0.316667  0.150000  0.050000     48.000000
  0.350000  0.150000  0.050000     48.000000
  0.383333  0.150000  0.050000     48.000000
  0.416667  0.150000  0.050000     48.000000
  0.450000  0.150000  0.050000     48.000000
  0.483333  0.150000  0.050000     48.000000
  0.183333  0.183333  0.050000     24.000000
  0.216667  0.183333  0.050000     48.000000
  0.250000  0.183333  0.050000     48.000000
  0.283333  0.183333  0.050000     48.000000
  0.316667  0.183333  0.050000     48.000000
  0.350000  0.183333  0.050000     48.000000
  0.383333  0.183333  0.050000     48.000000
  0.416667  0.183333  0.050000     48.000000
  0.450000  0.183333  0.050000     48.000000
  0.483333  0.183333  0.050000     48.000000
  0.216667  0.216667  0.050000     24.000000
  0.250000  0.216667  0.050000     48.000000
  0.283333  0.216667  0.050000     48.000000
  0.316667  0.216667  0.050000     48.000000
  0.350000  0.216667  0.050000     48.000000
  0.383333  0.216667  0.050000     48.000000
  0.416667  0.216667  0.050000     48.000000
  0.450000  0.216667  0.050000     48.000000
  0.483333  0.216667  0.050000     48.000000
  0.250000  0.250000  0.050000     24.000000
  0.283333  0.250000  0.050000     48.000000
  0.316667  0.250000  0.050000     48.000000
  0.350000  0.250000  0.050000     48.000000
  0.383333  0.250000  0.050000     48.000000
  0.416667  0.250000  0.050000     48.000000
  0.450000  0.250000  0.050000     48.000000
  0.483333  0.250000  0.050000     48.000000
  0.283333  0.283333  0.050000     24.000000
  0.316667  0.283333  0.050000     48.000000
  0.350000  0.283333  0.050000     48.000000
  0.383333  0.283333  0.050000     48.000000
  0.416667  0.283333  0.050000     48.000000
  0.450000  0.283333  0.050000     48.000000
  0.483333  0.283333  0.050000     48.000000
  0.316667  0.316667  0.050000     24.000000
  0.350000  0.316667  0.050000     48.000000
  0.383333  0.316667  0.050000     48.000000
  0.416667  0.316667  0.050000     48.000000
  0.450000  0.316667  0.050000     48.000000
  0.483333  0.316667  0.050000     48.000000
  0.350000  0.350000  0.050000     24.000000
  0.383333  0.350000  0.050000     48.000000
  0.416667  0.350000  0.050000     48.000000
  0.450000  0.350000  0.050000     48.000000
  0.483333  0.350000  0.050000     48.000000
  0.383333  0.383333  0.050000     24.000000
  0.416667  0.383333  0.050000     48.000000
  0.450000  0.383333  0.050000     48.000000
  0.483333  0.383333  0.050000     48.000000
  0.416667  0.416667  0.050000     24.000000
  0.450000  0.416667  0.050000     48.000000
  0.483333  0.416667  0.050000     48.000000
  0.450000  0.450000  0.050000     24.000000
  0.483333  0.450000  0.050000     48.000000
  0.483333  0.483333  0.050000     24.000000
  0.083333  0.083333  0.083333      8.000000
  0.116667  0.083333  0.083333     24.000000
  0.150000  0.083333  0.083333     24.000000
  0.183333  0.083333  0.083333     24.000000
  0.216667  0.083333  0.083333     24.000000
  0.250000  0.083333  0.083333     24.000000
  0.283333  0.083333  0.083333     24.000000
  0.316667  0.083333  0.083333     24.000000
  0.350000  0.083333  0.083333     24.000000
  0.383333  0.083333  0.083333     24.000000
  0.416667  0.083333  0.083333     24.000000
  0.450000  0.083333  0.083333     24.000000
  0.483333  0.083333  0.083333     24.000000
  0.116667  0.116667  0.083333     24.000000
  0.150000  0.116667  0.083333     48.000000
  0.183333  0.116667  0.083333     48.000000
  0.216667  0.116667  0.083333     48.000000
  0.250000  0.116667  0.083333     48.000000
  0.283333  0.116667  0.083333     48.000000
  0.316667  0.116667  0.083333     48.000000
  0.350000  0.116667  0.083333     48.000000
  0.383333  0.116667  0.083333     48.000000
  0.416667  0.116667  0.083333     48.000000
  0.450000  0.116667  0.083333     48.000000
  0.483333  0.116667  0.083333     48.000000
  0.150000  0.150000  0.083333     24.000000
  0.183333  0.150000  0.083333     48.000000
  0.216667  0.150000  0.083333     48.000000
  0.250000  0.150000  0.083333     48.000000
  0.283333  0.150000  0.083333     48.000000
  0.316667  0.150000  0.083333     48.000000
  0.350000  0.150000  0.083333     48.000000
  0.383333  0.150000  0.083333     48.000000
  0.416667  0.150000  0.083333     48.000000
  0.450000  0.150000  0.083333     48.000000
  0.483333  0.150000  0.083333     48.000000
  0.183333  0.183333  0.083333     24.000000
  0.216667  0.183333  0.083333     48.000000
  0.250000  0.183333  0.083333     48.000000
  0.283333  0.183333  0.083333     48.000000
  0.316667  0.183333  0.083333     48.000000
  0.350000  0.183333  0.083333     48.000000
  0.383333  0.183333  0.083333     48.000000
  0.416667  0.183333  0.083333     48.000000
  0.450000  0.183333  0.083333     48.000000
  0.483333  0.183333  0.083333     48.000000
  0.216667  0.216667  0.083333     24.000000
  0.250000  0.216667  0.083333     48.000000
  0.283333  0.216667  0.083333     48.000000
  0.316667  0.216667  0.083333     48.000000
  0.350000  0.216667  0.083333     48.000000
  0.383333  0.216667  0.083333     48.000000
  0.416667  0.216667  0.083333     48.000000
  0.450000  0.216667  0.083333     48.000000
  0.483333  0.216667  0.083333     48.000000
  0.250000  0.250000  0.083333     24.000000
  0.283333  0.250000  0.083333     48.000000
  0.316667  0.250000  0.083333     48.000000
  0.350000  0.250000  0.083333     48.000000
  0.383333  0.250000  0.083333     48.000000
  0.416667  0.250000  0.083333     48.000000
  0.450000  0.250000  0.083333     48.000000
  0.483333  0.250000  0.083333     48.000000
  0.283333  0.283333  0.083333     24.000000
  0.316667  0.283333  0.083333     48.000000
  0.350000  0.283333  0.083333     48.000000
  0.383333  0.283333  0.083333     48.000000
  0.416667  0.283333  0.083333     48.000000
  0.450000  0.283333  0.083333     48.000000
  0.483333  0.283333  0.083333     48.000000
  0.316667  0.316667  0.083333     24.000000
  0.350000  0.316667  0.083333     48.000000
  0.383333  0.316667  0.083333     48.000000
  0.416667  0.316667  0.083333     48.000000
  0.450000  0.316667  0.083333     48.000000
  0.483333  0.316667  0.083333     48.000000
  0.350000  0.350000  0.083333     24.000000
  0.383333  0.350000  0.083333     48.000000
  0.416667  0.350000  0.083333     48.000000
  0.450000  0.350000  0.083333     48.000000
  0.483333  0.350000  0.083333     48.000000
  0.383333  0.383333  0.083333     24.000000
  0.416667  0.383333  0.083333     48.000000
  0.450000  0.383333  0.083333     48.000000
  0.483333  0.383333  0.083333     48.000000
  0.416667  0.416667  0.083333     24.000000
  0.450000  0.416667  0.083333     48.000000
  0.483333  0.416667  0.083333     48.000000
  0.450000  0.450000  0.083333     24.000000
  0.483333  0.450000  0.083333     48.000000
  0.483333  0.483333  0.083333     24.000000
  0.116667  0.116667  0.116667      8.000000
  0.150000  0.116667  0.116667     24.000000
  0.183333  0.116667  0.116667     24.000000
  0.216667  0.116667  0.116667     24.000000
  0.250000  0.116667  0.116667     24.000000
  0.283333  0.116667  0.116667     24.000000
  0.316667  0.116667  0.116667     24.000000
  0.350000  0.116667  0.116667     24.000000
  0.383333  0.116667  0.116667     24.000000
  0.416667  0.116667  0.116667     24.000000
  0.450000  0.116667  0.116667     24.000000
  0.483333  0.116667  0.116667     24.000000
  0.150000  0.150000  0.116667     24.000000
  0.183333  0.150000  0.116667     48.000000
  0.216667  0.150000  0.116667     48.000000
  0.250000  0.150000  0.116667     48.000000
  0.283333  0.150000  0.116667     48.000000
  0.316667  0.150000  0.116667     48.000000
  0.350000  0.150000  0.116667     48.000000
  0.383333  0.150000  0.116667     48.000000
  0.416667  0.150000  0.116667     48.000000
  0.450000  0.150000  0.116667     48.000000
  0.483333  0.150000  0.116667     48.000000
  0.183333  0.183333  0.116667     24.000000
  0.216667  0.183333  0.116667     48.000000
  0.250000  0.183333  0.116667     48.000000
  0.283333  0.183333  0.116667     48.000000
  0.316667  0.183333  0.116667     48.000000
  0.350000  0.183333  0.116667     48.000000
  0.383333  0.183333  0.116667     48.000000
  0.416667  0.183333  0.116667     48.000000
  0.450000  0.183333  0.116667     48.000000
  0.483333  0.183333  0.116667     48.000000
  0.216667  0.216667  0.116667     24.000000
  0.250000  0.216667  0.116667     48.000000
  0.283333  0.216667  0.116667     48.000000
  0.316667  0.216667  0.116667     48.000000
  0.350000  0.216667  0.116667     48.000000
  0.383333  0.216667  0.116667     48.000000
  0.416667  0.216667  0.116667     48.000000
  0.450000  0.216667  0.116667     48.000000
  0.483333  0.216667  0.116667     48.000000
  0.250000  0.250000  0.116667     24.000000
  0.283333  0.250000  0.116667     48.000000
  0.316667  0.250000  0.116667     48.000000
  0.350000  0.250000  0.116667     48.000000
  0.383333  0.250000  0.116667     48.000000
  0.416667  0.250000  0.116667     48.000000
  0.450000  0.250000  0.116667     48.000000
  0.483333  0.250000  0.116667     48.000000
  0.283333  0.283333  0.116667     24.000000
  0.316667  0.283333  0.116667     48.000000
  0.350000  0.283333  0.116667     48.000000
  0.383333  0.283333  0.116667     48.000000
  0.416667  0.283333  0.116667     48.000000
  0.450000  0.283333  0.116667     48.000000
  0.483333  0.283333  0.116667     48.000000
  0.316667  0.316667  0.116667     24.000000
  0.350000  0.316667  0.116667     48.000000
  0.383333  0.316667  0.116667     48.000000
  0.416667  0.316667  0.116667     48.000000
  0.450000  0.316667  0.116667     48.000000
  0.483333  0.316667  0.116667     48.000000
  0.350000  0.350000  0.116667     24.000000
  0.383333  0.350000  0.116667     48.000000
  0.416667  0.350000  0.116667     48.000000
  0.450000  0.350000  0.116667     48.000000
  0.483333  0.350000  0.116667     48.000000
  0.383333  0.383333  0.116667     24.000000
  0.416667  0.383333  0.116667     48.000000
  0.450000  0.383333  0.116667     48.000000
  0.483333  0.383333  0.116667     48.000000
  0.416667  0.416667  0.116667     24.000000
  0.450000  0.416667  0.116667     48.000000
  0.483333  0.416667  0.116667     48.000000
  0.450000  0.450000  0.116667     24.000000
  0.483333  0.450000  0.116667     48.000000
  0.483333  0.483333  0.116667     24.000000
  0.150000  0.150000  0.150000      8.000000
  0.183333  0.150000  0.150000     24.000000
  0.216667  0.150000  0.150000     24.000000
  0.250000  0.150000  0.150000     24.000000
  0.283333  0.150000  0.150000     24.000000
  0.316667  0.150000  0.150000     24.000000
  0.350000  0.150000  0.150000     24.000000
  0.383333  0.150000  0.150000     24.000000
  0.416667  0.150000  0.150000     24.000000
  0.450000  0.150000  0.150000     24.000000
  0.483333  0.150000  0.150000     24.000000
  0.183333  0.183333  0.150000     24.000000
  0.216667  0.183333  0.150000     48.000000
  0.250000  0.183333  0.150000     48.000000
  0.283333  0.183333  0.150000     48.000000
  0.316667  0.183333  0.150000     48.000000
  0.350000  0.183333  0.150000     48.000000
  0.383333  0.183333  0.150000     48.000000
  0.416667  0.183333  0.150000     48.000000
  0.450000  0.183333  0.150000     48.000000
  0.483333  0.183333  0.150000     48.000000
  0.216667  0.216667  0.150000     24.000000
  0.250000  0.216667  0.150000     48.000000
  0.283333  0.216667  0.150000     48.000000
  0.316667  0.216667  0.150000     48.000000
  0.350000  0.216667  0.150000     48.000000
  0.383333  0.216667  0.150000     48.000000
  0.416667  0.216667  0.150000     48.000000
  0.450000  0.216667  0.150000     48.000000
  0.483333  0.216667  0.150000     48.000000
  0.250000  0.250000  0.150000     24.000000
  0.283333  0.250000  0.150000     48.000000
  0.316667  0.250000  0.150000     48.000000
  0.350000  0.250000  0.150000     48.000000
  0.383333  0.250000  0.150000     48.000000
  0.416667  0.250000  0.150000     48.000000
  0.450000  0.250000  0.150000     48.000000
  0.483333  0.250000  0.150000     48.000000
  0.283333  0.283333  0.150000     24.000000
  0.316667  0.283333  0.150000     48.000000
  0.350000  0.283333  0.150000     48.000000
  0.383333  0.283333  0.150000     48.000000
  0.416667  0.283333  0.150000     48.000000
  0.450000  0.283333  0.150000     48.000000
  0.483333  0.283333  0.150000     48.000000
  0.316667  0.316667  0.150000     24.000000
  0.350000  0.316667  0.150000     48.000000
  0.383333  0.316667  0.150000     48.000000
  0.416667  0.316667  0.150000     48.000000
  0.450000  0.316667  0.150000     48.000000
  0.483333  0.316667  0.150000     48.000000
  0.350000  0.350000  0.150000     24.000000
  0.383333  0.350000  0.150000     48.000000
  0.416667  0.350000  0.150000     48.000000
  0.450000  0.350000  0.150000     48.000000
  0.483333  0.350000  0.150000     48.000000
  0.383333  0.383333  0.150000     24.000000
  0.416667  0.383333  0.150000     48.000000
  0.450000  0.383333  0.150000     48.000000
  0.483333  0.383333  0.150000     48.000000
  0.416667  0.416667  0.150000     24.000000
  0.450000  0.416667  0.150000     48.000000
  0.483333  0.416667  0.150000     48.000000
  0.450000  0.450000  0.150000     24.000000
  0.483333  0.450000  0.150000     48.000000
  0.483333  0.483333  0.150000     24.000000
  0.183333  0.183333  0.183333      8.000000
  0.216667  0.183333  0.183333     24.000000
  0.250000  0.183333  0.183333     24.000000
  0.283333  0.183333  0.183333     24.000000
  0.316667  0.183333  0.183333     24.000000
  0.350000  0.183333  0.183333     24.000000
  0.383333  0.183333  0.183333     24.000000
  0.416667  0.183333  0.183333     24.000000
  0.450000  0.183333  0.183333     24.000000
  0.483333  0.183333  0.183333     24.000000
  0.216667  0.216667  0.183333     24.000000
  0.250000  0.216667  0.183333     48.000000
  0.283333  0.216667  0.183333     48.000000
  0.316667  0.216667  0.183333     48.000000
  0.350000  0.216667  0.183333     48.000000
  0.383333  0.216667  0.183333     48.000000
  0.416667  0.216667  0.183333     48.000000
  0.450000  0.216667  0.183333     48.000000
  0.483333  0.216667  0.183333     48.000000
  0.250000  0.250000  0.183333     24.000000
  0.283333  0.250000  0.183333     48.000000
  0.316667  0.250000  0.183333     48.000000
  0.350000  0.250000  0.183333     48.000000
  0.383333  0.250000  0.183333     48.000000
  0.416667  0.250000  0.183333     48.000000
  0.450000  0.250000  0.183333     48.000000
  0.483333  0.250000  0.183333     48.000000
  0.283333  0.283333  0.183333     24.000000
  0.316667  0.283333  0.183333     48.000000
  0.350000  0.283333  0.183333     48.000000
  0.383333  0.283333  0.183333     48.000000
  0.416667  0.283333  0.183333     48.000000
  0.450000  0.283333  0.183333     48.000000
  0.483333  0.283333  0.183333     48.000000
  0.316667  0.316667  0.183333     24.000000
  0.350000  0.316667  0.183333     48.000000
  0.383333  0.316667  0.183333     48.000000
  0.416667  0.316667  0.183333     48.000000
  0.450000  0.316667  0.183333     48.000000
  0.483333  0.316667  0.183333     48.000000
  0.350000  0.350000  0.183333     24.000000
  0.383333  0.350000  0.183333     48.000000
  0.416667  0.350000  0.183333     48.000000
  0.450000  0.350000  0.183333     48.000000
  0.483333  0.350000  0.183333     48.000000
  0.383333  0.383333  0.183333     24.000000
  0.416667  0.383333  0.183333     48.000000
  0.450000  0.383333  0.183333     48.000000
  0.483333  0.383333  0.183333     48.000000
  0.416667  0.416667  0.183333     24.000000
  0.450000  0.416667  0.183333     48.000000
  0.483333  0.416667  0.183333     48.000000
  0.450000  0.450000  0.183333     24.000000
  0.483333  0.450000  0.183333     48.000000
  0.483333  0.483333  0.183333     24.000000
  0.216667  0.216667  0.216667      8.000000
  0.250000  0.216667  0.216667     24.000000
  0.283333  0.216667  0.216667     24.000000
  0.316667  0.216667  0.216667     24.000000
  0.350000  0.216667  0.216667     24.000000
  0.383333  0.216667  0.216667     24.000000
  0.416667  0.216667  0.216667     24.000000
  0.450000  0.216667  0.216667     24.000000
  0.483333  0.216667  0.216667     24.000000
  0.250000  0.250000  0.216667     24.000000
  0.283333  0.250000  0.216667     48.000000
  0.316667  0.250000  0.216667     48.000000
  0.350000  0.250000  0.216667     48.000000
  0.383333  0.250000  0.216667     48.000000
  0.416667  0.250000  0.216667     48.000000
  0.450000  0.250000  0.216667     48.000000
  0.483333  0.250000  0.216667     48.000000
  0.283333  0.283333  0.216667     24.000000
  0.316667  0.283333  0.216667     48.000000
  0.350000  0.283333  0.216667     48.000000
  0.383333  0.283333  0.216667     48.000000
  0.416667  0.283333  0.216667     48.000000
  0.450000  0.283333  0.216667     48.000000
  0.483333  0.283333  0.216667     48.000000
  0.316667  0.316667  0.216667     24.000000
  0.350000  0.316667  0.216667     48.000000
  0.383333  0.316667  0.216667     48.000000
  0.416667  0.316667  0.216667     48.000000
  0.450000  0.316667  0.216667     48.000000
  0.483333  0.316667  0.216667     48.000000
  0.350000  0.350000  0.216667     24.000000
  0.383333  0.350000  0.216667     48.000000
  0.416667  0.350000  0.216667     48.000000
  0.450000  0.350000  0.216667     48.000000
  0.483333  0.350000  0.216667     48.000000
  0.383333  0.383333  0.216667     24.000000
  0.416667  0.383333  0.216667     48.000000
  0.450000  0.383333  0.216667     48.000000
  0.483333  0.383333  0.216667     48.000000
  0.416667  0.416667  0.216667     24.000000
  0.450000  0.416667  0.216667     48.000000
  0.483333  0.416667  0.216667     48.000000
  0.450000  0.450000  0.216667     24.000000
  0.483333  0.450000  0.216667     48.000000
  0.483333  0.483333  0.216667     24.000000
  0.250000  0.250000  0.250000      8.000000
  0.283333  0.250000  0.250000     24.000000
  0.316667  0.250000  0.250000     24.000000
  0.350000  0.250000  0.250000     24.000000
  0.383333  0.250000  0.250000     24.000000
  0.416667  0.250000  0.250000     24.000000
  0.450000  0.250000  0.250000     24.000000
  0.483333  0.250000  0.250000     24.000000
  0.283333  0.283333  0.250000     24.000000
  0.316667  0.283333  0.250000     48.000000
  0.350000  0.283333  0.250000     48.000000
  0.383333  0.283333  0.250000     48.000000
  0.416667  0.283333  0.250000     48.000000
  0.450000  0.283333  0.250000     48.000000
  0.483333  0.283333  0.250000     48.000000
  0.316667  0.316667  0.250000     24.000000
  0.350000  0.316667  0.250000     48.000000
  0.383333  0.316667  0.250000     48.000000
  0.416667  0.316667  0.250000     48.000000
  0.450000  0.316667  0.250000     48.000000
  0.483333  0.316667  0.250000     48.000000
  0.350000  0.350000  0.250000     24.000000
  0.383333  0.350000  0.250000     48.000000
  0.416667  0.350000  0.250000     48.000000
  0.450000  0.350000  0.250000     48.000000
  0.483333  0.350000  0.250000     48.000000
  0.383333  0.383333  0.250000     24.000000
  0.416667  0.383333  0.250000     48.000000
  0.450000  0.383333  0.250000     48.000000
  0.483333  0.383333  0.250000     48.000000
  0.416667  0.416667  0.250000     24.000000
  0.450000  0.416667  0.250000     48.000000
  0.483333  0.416667  0.250000     48.000000
  0.450000  0.450000  0.250000     24.000000
  0.483333  0.450000  0.250000     48.000000
  0.483333  0.483333  0.250000     24.000000
  0.283333  0.283333  0.283333      8.000000
  0.316667  0.283333  0.283333     24.000000
  0.350000  0.283333  0.283333     24.000000
  0.383333  0.283333  0.283333     24.000000
  0.416667  0.283333  0.283333     24.000000
  0.450000  0.283333  0.283333     24.000000
  0.483333  0.283333  0.283333     24.000000
  0.316667  0.316667  0.283333     24.000000
  0.350000  0.316667  0.283333     48.000000
  0.383333  0.316667  0.283333     48.000000
  0.416667  0.316667  0.283333     48.000000
  0.450000  0.316667  0.283333     48.000000
  0.483333  0.316667  0.283333     48.000000
  0.350000  0.350000  0.283333     24.000000
  0.383333  0.350000  0.283333     48.000000
  0.416667  0.350000  0.283333     48.000000
  0.450000  0.350000  0.283333     48.000000
  0.483333  0.350000  0.283333     48.000000
  0.383333  0.383333  0.283333     24.000000
  0.416667  0.383333  0.283333     48.000000
  0.450000  0.383333  0.283333     48.000000
  0.483333  0.383333  0.283333     48.000000
  0.416667  0.416667  0.283333     24.000000
  0.450000  0.416667  0.283333     48.000000
  0.483333  0.416667  0.283333     48.000000
  0.450000  0.450000  0.283333     24.000000
  0.483333  0.450000  0.283333     48.000000
  0.483333  0.483333  0.283333     24.000000
  0.316667  0.316667  0.316667      8.000000
  0.350000  0.316667  0.316667     24.000000
  0.383333  0.316667  0.316667     24.000000
  0.416667  0.316667  0.316667     24.000000
  0.450000  0.316667  0.316667     24.000000
  0.483333  0.316667  0.316667     24.000000
  0.350000  0.350000  0.316667     24.000000
  0.383333  0.350000  0.316667     48.000000
  0.416667  0.350000  0.316667     48.000000
  0.450000  0.350000  0.316667     48.000000
  0.483333  0.350000  0.316667     48.000000
  0.383333  0.383333  0.316667     24.000000
  0.416667  0.383333  0.316667     48.000000
  0.450000  0.383333  0.316667     48.000000
  0.483333  0.383333  0.316667     48.000000
  0.416667  0.416667  0.316667     24.000000
  0.450000  0.416667  0.316667     48.000000
  0.483333  0.416667  0.316667     48.000000
  0.450000  0.450000  0.316667     24.000000
  0.483333  0.450000  0.316667     48.000000
  0.483333  0.483333  0.316667     24.000000
  0.350000  0.350000  0.350000      8.000000
  0.383333  0.350000  0.350000     24.000000
  0.416667  0.350000  0.350000     24.000000
  0.450000  0.350000  0.350000     24.000000
  0.483333  0.350000  0.350000     24.000000
  0.383333  0.383333  0.350000     24.000000
  0.416667  0.383333  0.350000     48.000000
  0.450000  0.383333  0.350000     48.000000
  0.483333  0.383333  0.350000     48.000000
  0.416667  0.416667  0.350000     24.000000
  0.450000  0.416667  0.350000     48.000000
  0.483333  0.416667  0.350000     48.000000
  0.450000  0.450000  0.350000     24.000000
  0.483333  0.450000  0.350000     48.000000
  0.483333  0.483333  0.350000     24.000000
  0.383333  0.383333  0.383333      8.000000
  0.416667  0.383333  0.383333     24.000000
  0.450000  0.383333  0.383333     24.000000
  0.483333  0.383333  0.383333     24.000000
  0.416667  0.416667  0.383333     24.000000
  0.450000  0.416667  0.383333     48.000000
  0.483333  0.416667  0.383333     48.000000
  0.450000  0.450000  0.383333     24.000000
  0.483333  0.450000  0.383333     48.000000
  0.483333  0.483333  0.383333     24.000000
  0.416667  0.416667  0.416667      8.000000
  0.450000  0.416667  0.416667     24.000000
  0.483333  0.416667  0.416667     24.000000
  0.450000  0.450000  0.416667     24.000000
  0.483333  0.450000  0.416667     48.000000
  0.483333  0.483333  0.416667     24.000000
  0.450000  0.450000  0.450000      8.000000
  0.483333  0.450000  0.450000     24.000000
  0.483333  0.483333  0.450000     24.000000
  0.483333  0.483333  0.483333      8.000000
 
 Following cartesian coordinates:
            Coordinates               Weight
  0.004127  0.004127  0.004127      8.000000
  0.012380  0.004127  0.004127     24.000000
  0.020633  0.004127  0.004127     24.000000
  0.028886  0.004127  0.004127     24.000000
  0.037140  0.004127  0.004127     24.000000
  0.045393  0.004127  0.004127     24.000000
  0.053646  0.004127  0.004127     24.000000
  0.061900  0.004127  0.004127     24.000000
  0.070153  0.004127  0.004127     24.000000
  0.078406  0.004127  0.004127     24.000000
  0.086659  0.004127  0.004127     24.000000
  0.094913  0.004127  0.004127     24.000000
  0.103166  0.004127  0.004127     24.000000
  0.111419  0.004127  0.004127     24.000000
  0.119673  0.004127  0.004127     24.000000
  0.012380  0.012380  0.004127     24.000000
  0.020633  0.012380  0.004127     48.000000
  0.028886  0.012380  0.004127     48.000000
  0.037140  0.012380  0.004127     48.000000
  0.045393  0.012380  0.004127     48.000000
  0.053646  0.012380  0.004127     48.000000
  0.061900  0.012380  0.004127     48.000000
  0.070153  0.012380  0.004127     48.000000
  0.078406  0.012380  0.004127     48.000000
  0.086659  0.012380  0.004127     48.000000
  0.094913  0.012380  0.004127     48.000000
  0.103166  0.012380  0.004127     48.000000
  0.111419  0.012380  0.004127     48.000000
  0.119673  0.012380  0.004127     48.000000
  0.020633  0.020633  0.004127     24.000000
  0.028886  0.020633  0.004127     48.000000
  0.037140  0.020633  0.004127     48.000000
  0.045393  0.020633  0.004127     48.000000
  0.053646  0.020633  0.004127     48.000000
  0.061900  0.020633  0.004127     48.000000
  0.070153  0.020633  0.004127     48.000000
  0.078406  0.020633  0.004127     48.000000
  0.086659  0.020633  0.004127     48.000000
  0.094913  0.020633  0.004127     48.000000
  0.103166  0.020633  0.004127     48.000000
  0.111419  0.020633  0.004127     48.000000
  0.119673  0.020633  0.004127     48.000000
  0.028886  0.028886  0.004127     24.000000
  0.037140  0.028886  0.004127     48.000000
  0.045393  0.028886  0.004127     48.000000
  0.053646  0.028886  0.004127     48.000000
  0.061900  0.028886  0.004127     48.000000
  0.070153  0.028886  0.004127     48.000000
  0.078406  0.028886  0.004127     48.000000
  0.086659  0.028886  0.004127     48.000000
  0.094913  0.028886  0.004127     48.000000
  0.103166  0.028886  0.004127     48.000000
  0.111419  0.028886  0.004127     48.000000
  0.119673  0.028886  0.004127     48.000000
  0.037140  0.037140  0.004127     24.000000
  0.045393  0.037140  0.004127     48.000000
  0.053646  0.037140  0.004127     48.000000
  0.061900  0.037140  0.004127     48.000000
  0.070153  0.037140  0.004127     48.000000
  0.078406  0.037140  0.004127     48.000000
  0.086659  0.037140  0.004127     48.000000
  0.094913  0.037140  0.004127     48.000000
  0.103166  0.037140  0.004127     48.000000
  0.111419  0.037140  0.004127     48.000000
  0.119673  0.037140  0.004127     48.000000
  0.045393  0.045393  0.004127     24.000000
  0.053646  0.045393  0.004127     48.000000
  0.061900  0.045393  0.004127     48.000000
  0.070153  0.045393  0.004127     48.000000
  0.078406  0.045393  0.004127     48.000000
  0.086659  0.045393  0.004127     48.000000
  0.094913  0.045393  0.004127     48.000000
  0.103166  0.045393  0.004127     48.000000
  0.111419  0.045393  0.004127     48.000000
  0.119673  0.045393  0.004127     48.000000
  0.053646  0.053646  0.004127     24.000000
  0.061900  0.053646  0.004127     48.000000
  0.070153  0.053646  0.004127     48.000000
  0.078406  0.053646  0.004127     48.000000
  0.086659  0.053646  0.004127     48.000000
  0.094913  0.053646  0.004127     48.000000
  0.103166  0.053646  0.004127     48.000000
  0.111419  0.053646  0.004127     48.000000
  0.119673  0.053646  0.004127     48.000000
  0.061900  0.061900  0.004127     24.000000
  0.070153  0.061900  0.004127     48.000000
  0.078406  0.061900  0.004127     48.000000
  0.086659  0.061900  0.004127     48.000000
  0.094913  0.061900  0.004127     48.000000
  0.103166  0.061900  0.004127     48.000000
  0.111419  0.061900  0.004127     48.000000
  0.119673  0.061900  0.004127     48.000000
  0.070153  0.070153  0.004127     24.000000
  0.078406  0.070153  0.004127     48.000000
  0.086659  0.070153  0.004127     48.000000
  0.094913  0.070153  0.004127     48.000000
  0.103166  0.070153  0.004127     48.000000
  0.111419  0.070153  0.004127     48.000000
  0.119673  0.070153  0.004127     48.000000
  0.078406  0.078406  0.004127     24.000000
  0.086659  0.078406  0.004127     48.000000
  0.094913  0.078406  0.004127     48.000000
  0.103166  0.078406  0.004127     48.000000
  0.111419  0.078406  0.004127     48.000000
  0.119673  0.078406  0.004127     48.000000
  0.086659  0.086659  0.004127     24.000000
  0.094913  0.086659  0.004127     48.000000
  0.103166  0.086659  0.004127     48.000000
  0.111419  0.086659  0.004127     48.000000
  0.119673  0.086659  0.004127     48.000000
  0.094913  0.094913  0.004127     24.000000
  0.103166  0.094913  0.004127     48.000000
  0.111419  0.094913  0.004127     48.000000
  0.119673  0.094913  0.004127     48.000000
  0.103166  0.103166  0.004127     24.000000
  0.111419  0.103166  0.004127     48.000000
  0.119673  0.103166  0.004127     48.000000
  0.111419  0.111419  0.004127     24.000000
  0.119673  0.111419  0.004127     48.000000
  0.119673  0.119673  0.004127     24.000000
  0.012380  0.012380  0.012380      8.000000
  0.020633  0.012380  0.012380     24.000000
  0.028886  0.012380  0.012380     24.000000
  0.037140  0.012380  0.012380     24.000000
  0.045393  0.012380  0.012380     24.000000
  0.053646  0.012380  0.012380     24.000000
  0.061900  0.012380  0.012380     24.000000
  0.070153  0.012380  0.012380     24.000000
  0.078406  0.012380  0.012380     24.000000
  0.086659  0.012380  0.012380     24.000000
  0.094913  0.012380  0.012380     24.000000
  0.103166  0.012380  0.012380     24.000000
  0.111419  0.012380  0.012380     24.000000
  0.119673  0.012380  0.012380     24.000000
  0.020633  0.020633  0.012380     24.000000
  0.028886  0.020633  0.012380     48.000000
  0.037140  0.020633  0.012380     48.000000
  0.045393  0.020633  0.012380     48.000000
  0.053646  0.020633  0.012380     48.000000
  0.061900  0.020633  0.012380     48.000000
  0.070153  0.020633  0.012380     48.000000
  0.078406  0.020633  0.012380     48.000000
  0.086659  0.020633  0.012380     48.000000
  0.094913  0.020633  0.012380     48.000000
  0.103166  0.020633  0.012380     48.000000
  0.111419  0.020633  0.012380     48.000000
  0.119673  0.020633  0.012380     48.000000
  0.028886  0.028886  0.012380     24.000000
  0.037140  0.028886  0.012380     48.000000
  0.045393  0.028886  0.012380     48.000000
  0.053646  0.028886  0.012380     48.000000
  0.061900  0.028886  0.012380     48.000000
  0.070153  0.028886  0.012380     48.000000
  0.078406  0.028886  0.012380     48.000000
  0.086659  0.028886  0.012380     48.000000
  0.094913  0.028886  0.012380     48.000000
  0.103166  0.028886  0.012380     48.000000
  0.111419  0.028886  0.012380     48.000000
  0.119673  0.028886  0.012380     48.000000
  0.037140  0.037140  0.012380     24.000000
  0.045393  0.037140  0.012380     48.000000
  0.053646  0.037140  0.012380     48.000000
  0.061900  0.037140  0.012380     48.000000
  0.070153  0.037140  0.012380     48.000000
  0.078406  0.037140  0.012380     48.000000
  0.086659  0.037140  0.012380     48.000000
  0.094913  0.037140  0.012380     48.000000
  0.103166  0.037140  0.012380     48.000000
  0.111419  0.037140  0.012380     48.000000
  0.119673  0.037140  0.012380     48.000000
  0.045393  0.045393  0.012380     24.000000
  0.053646  0.045393  0.012380     48.000000
  0.061900  0.045393  0.012380     48.000000
  0.070153  0.045393  0.012380     48.000000
  0.078406  0.045393  0.012380     48.000000
  0.086659  0.045393  0.012380     48.000000
  0.094913  0.045393  0.012380     48.000000
  0.103166  0.045393  0.012380     48.000000
  0.111419  0.045393  0.012380     48.000000
  0.119673  0.045393  0.012380     48.000000
  0.053646  0.053646  0.012380     24.000000
  0.061900  0.053646  0.012380     48.000000
  0.070153  0.053646  0.012380     48.000000
  0.078406  0.053646  0.012380     48.000000
  0.086659  0.053646  0.012380     48.000000
  0.094913  0.053646  0.012380     48.000000
  0.103166  0.053646  0.012380     48.000000
  0.111419  0.053646  0.012380     48.000000
  0.119673  0.053646  0.012380     48.000000
  0.061900  0.061900  0.012380     24.000000
  0.070153  0.061900  0.012380     48.000000
  0.078406  0.061900  0.012380     48.000000
  0.086659  0.061900  0.012380     48.000000
  0.094913  0.061900  0.012380     48.000000
  0.103166  0.061900  0.012380     48.000000
  0.111419  0.061900  0.012380     48.000000
  0.119673  0.061900  0.012380     48.000000
  0.070153  0.070153  0.012380     24.000000
  0.078406  0.070153  0.012380     48.000000
  0.086659  0.070153  0.012380     48.000000
  0.094913  0.070153  0.012380     48.000000
  0.103166  0.070153  0.012380     48.000000
  0.111419  0.070153  0.012380     48.000000
  0.119673  0.070153  0.012380     48.000000
  0.078406  0.078406  0.012380     24.000000
  0.086659  0.078406  0.012380     48.000000
  0.094913  0.078406  0.012380     48.000000
  0.103166  0.078406  0.012380     48.000000
  0.111419  0.078406  0.012380     48.000000
  0.119673  0.078406  0.012380     48.000000
  0.086659  0.086659  0.012380     24.000000
  0.094913  0.086659  0.012380     48.000000
  0.103166  0.086659  0.012380     48.000000
  0.111419  0.086659  0.012380     48.000000
  0.119673  0.086659  0.012380     48.000000
  0.094913  0.094913  0.012380     24.000000
  0.103166  0.094913  0.012380     48.000000
  0.111419  0.094913  0.012380     48.000000
  0.119673  0.094913  0.012380     48.000000
  0.103166  0.103166  0.012380     24.000000
  0.111419  0.103166  0.012380     48.000000
  0.119673  0.103166  0.012380     48.000000
  0.111419  0.111419  0.012380     24.000000
  0.119673  0.111419  0.012380     48.000000
  0.119673  0.119673  0.012380     24.000000
  0.020633  0.020633  0.020633      8.000000
  0.028886  0.020633  0.020633     24.000000
  0.037140  0.020633  0.020633     24.000000
  0.045393  0.020633  0.020633     24.000000
  0.053646  0.020633  0.020633     24.000000
  0.061900  0.020633  0.020633     24.000000
  0.070153  0.020633  0.020633     24.000000
  0.078406  0.020633  0.020633     24.000000
  0.086659  0.020633  0.020633     24.000000
  0.094913  0.020633  0.020633     24.000000
  0.103166  0.020633  0.020633     24.000000
  0.111419  0.020633  0.020633     24.000000
  0.119673  0.020633  0.020633     24.000000
  0.028886  0.028886  0.020633     24.000000
  0.037140  0.028886  0.020633     48.000000
  0.045393  0.028886  0.020633     48.000000
  0.053646  0.028886  0.020633     48.000000
  0.061900  0.028886  0.020633     48.000000
  0.070153  0.028886  0.020633     48.000000
  0.078406  0.028886  0.020633     48.000000
  0.086659  0.028886  0.020633     48.000000
  0.094913  0.028886  0.020633     48.000000
  0.103166  0.028886  0.020633     48.000000
  0.111419  0.028886  0.020633     48.000000
  0.119673  0.028886  0.020633     48.000000
  0.037140  0.037140  0.020633     24.000000
  0.045393  0.037140  0.020633     48.000000
  0.053646  0.037140  0.020633     48.000000
  0.061900  0.037140  0.020633     48.000000
  0.070153  0.037140  0.020633     48.000000
  0.078406  0.037140  0.020633     48.000000
  0.086659  0.037140  0.020633     48.000000
  0.094913  0.037140  0.020633     48.000000
  0.103166  0.037140  0.020633     48.000000
  0.111419  0.037140  0.020633     48.000000
  0.119673  0.037140  0.020633     48.000000
  0.045393  0.045393  0.020633     24.000000
  0.053646  0.045393  0.020633     48.000000
  0.061900  0.045393  0.020633     48.000000
  0.070153  0.045393  0.020633     48.000000
  0.078406  0.045393  0.020633     48.000000
  0.086659  0.045393  0.020633     48.000000
  0.094913  0.045393  0.020633     48.000000
  0.103166  0.045393  0.020633     48.000000
  0.111419  0.045393  0.020633     48.000000
  0.119673  0.045393  0.020633     48.000000
  0.053646  0.053646  0.020633     24.000000
  0.061900  0.053646  0.020633     48.000000
  0.070153  0.053646  0.020633     48.000000
  0.078406  0.053646  0.020633     48.000000
  0.086659  0.053646  0.020633     48.000000
  0.094913  0.053646  0.020633     48.000000
  0.103166  0.053646  0.020633     48.000000
  0.111419  0.053646  0.020633     48.000000
  0.119673  0.053646  0.020633     48.000000
  0.061900  0.061900  0.020633     24.000000
  0.070153  0.061900  0.020633     48.000000
  0.078406  0.061900  0.020633     48.000000
  0.086659  0.061900  0.020633     48.000000
  0.094913  0.061900  0.020633     48.000000
  0.103166  0.061900  0.020633     48.000000
  0.111419  0.061900  0.020633     48.000000
  0.119673  0.061900  0.020633     48.000000
  0.070153  0.070153  0.020633     24.000000
  0.078406  0.070153  0.020633     48.000000
  0.086659  0.070153  0.020633     48.000000
  0.094913  0.070153  0.020633     48.000000
  0.103166  0.070153  0.020633     48.000000
  0.111419  0.070153  0.020633     48.000000
  0.119673  0.070153  0.020633     48.000000
  0.078406  0.078406  0.020633     24.000000
  0.086659  0.078406  0.020633     48.000000
  0.094913  0.078406  0.020633     48.000000
  0.103166  0.078406  0.020633     48.000000
  0.111419  0.078406  0.020633     48.000000
  0.119673  0.078406  0.020633     48.000000
  0.086659  0.086659  0.020633     24.000000
  0.094913  0.086659  0.020633     48.000000
  0.103166  0.086659  0.020633     48.000000
  0.111419  0.086659  0.020633     48.000000
  0.119673  0.086659  0.020633     48.000000
  0.094913  0.094913  0.020633     24.000000
  0.103166  0.094913  0.020633     48.000000
  0.111419  0.094913  0.020633     48.000000
  0.119673  0.094913  0.020633     48.000000
  0.103166  0.103166  0.020633     24.000000
  0.111419  0.103166  0.020633     48.000000
  0.119673  0.103166  0.020633     48.000000
  0.111419  0.111419  0.020633     24.000000
  0.119673  0.111419  0.020633     48.000000
  0.119673  0.119673  0.020633     24.000000
  0.028886  0.028886  0.028886      8.000000
  0.037140  0.028886  0.028886     24.000000
  0.045393  0.028886  0.028886     24.000000
  0.053646  0.028886  0.028886     24.000000
  0.061900  0.028886  0.028886     24.000000
  0.070153  0.028886  0.028886     24.000000
  0.078406  0.028886  0.028886     24.000000
  0.086659  0.028886  0.028886     24.000000
  0.094913  0.028886  0.028886     24.000000
  0.103166  0.028886  0.028886     24.000000
  0.111419  0.028886  0.028886     24.000000
  0.119673  0.028886  0.028886     24.000000
  0.037140  0.037140  0.028886     24.000000
  0.045393  0.037140  0.028886     48.000000
  0.053646  0.037140  0.028886     48.000000
  0.061900  0.037140  0.028886     48.000000
  0.070153  0.037140  0.028886     48.000000
  0.078406  0.037140  0.028886     48.000000
  0.086659  0.037140  0.028886     48.000000
  0.094913  0.037140  0.028886     48.000000
  0.103166  0.037140  0.028886     48.000000
  0.111419  0.037140  0.028886     48.000000
  0.119673  0.037140  0.028886     48.000000
  0.045393  0.045393  0.028886     24.000000
  0.053646  0.045393  0.028886     48.000000
  0.061900  0.045393  0.028886     48.000000
  0.070153  0.045393  0.028886     48.000000
  0.078406  0.045393  0.028886     48.000000
  0.086659  0.045393  0.028886     48.000000
  0.094913  0.045393  0.028886     48.000000
  0.103166  0.045393  0.028886     48.000000
  0.111419  0.045393  0.028886     48.000000
  0.119673  0.045393  0.028886     48.000000
  0.053646  0.053646  0.028886     24.000000
  0.061900  0.053646  0.028886     48.000000
  0.070153  0.053646  0.028886     48.000000
  0.078406  0.053646  0.028886     48.000000
  0.086659  0.053646  0.028886     48.000000
  0.094913  0.053646  0.028886     48.000000
  0.103166  0.053646  0.028886     48.000000
  0.111419  0.053646  0.028886     48.000000
  0.119673  0.053646  0.028886     48.000000
  0.061900  0.061900  0.028886     24.000000
  0.070153  0.061900  0.028886     48.000000
  0.078406  0.061900  0.028886     48.000000
  0.086659  0.061900  0.028886     48.000000
  0.094913  0.061900  0.028886     48.000000
  0.103166  0.061900  0.028886     48.000000
  0.111419  0.061900  0.028886     48.000000
  0.119673  0.061900  0.028886     48.000000
  0.070153  0.070153  0.028886     24.000000
  0.078406  0.070153  0.028886     48.000000
  0.086659  0.070153  0.028886     48.000000
  0.094913  0.070153  0.028886     48.000000
  0.103166  0.070153  0.028886     48.000000
  0.111419  0.070153  0.028886     48.000000
  0.119673  0.070153  0.028886     48.000000
  0.078406  0.078406  0.028886     24.000000
  0.086659  0.078406  0.028886     48.000000
  0.094913  0.078406  0.028886     48.000000
  0.103166  0.078406  0.028886     48.000000
  0.111419  0.078406  0.028886     48.000000
  0.119673  0.078406  0.028886     48.000000
  0.086659  0.086659  0.028886     24.000000
  0.094913  0.086659  0.028886     48.000000
  0.103166  0.086659  0.028886     48.000000
  0.111419  0.086659  0.028886     48.000000
  0.119673  0.086659  0.028886     48.000000
  0.094913  0.094913  0.028886     24.000000
  0.103166  0.094913  0.028886     48.000000
  0.111419  0.094913  0.028886     48.000000
  0.119673  0.094913  0.028886     48.000000
  0.103166  0.103166  0.028886     24.000000
  0.111419  0.103166  0.028886     48.000000
  0.119673  0.103166  0.028886     48.000000
  0.111419  0.111419  0.028886     24.000000
  0.119673  0.111419  0.028886     48.000000
  0.119673  0.119673  0.028886     24.000000
  0.037140  0.037140  0.037140      8.000000
  0.045393  0.037140  0.037140     24.000000
  0.053646  0.037140  0.037140     24.000000
  0.061900  0.037140  0.037140     24.000000
  0.070153  0.037140  0.037140     24.000000
  0.078406  0.037140  0.037140     24.000000
  0.086659  0.037140  0.037140     24.000000
  0.094913  0.037140  0.037140     24.000000
  0.103166  0.037140  0.037140     24.000000
  0.111419  0.037140  0.037140     24.000000
  0.119673  0.037140  0.037140     24.000000
  0.045393  0.045393  0.037140     24.000000
  0.053646  0.045393  0.037140     48.000000
  0.061900  0.045393  0.037140     48.000000
  0.070153  0.045393  0.037140     48.000000
  0.078406  0.045393  0.037140     48.000000
  0.086659  0.045393  0.037140     48.000000
  0.094913  0.045393  0.037140     48.000000
  0.103166  0.045393  0.037140     48.000000
  0.111419  0.045393  0.037140     48.000000
  0.119673  0.045393  0.037140     48.000000
  0.053646  0.053646  0.037140     24.000000
  0.061900  0.053646  0.037140     48.000000
  0.070153  0.053646  0.037140     48.000000
  0.078406  0.053646  0.037140     48.000000
  0.086659  0.053646  0.037140     48.000000
  0.094913  0.053646  0.037140     48.000000
  0.103166  0.053646  0.037140     48.000000
  0.111419  0.053646  0.037140     48.000000
  0.119673  0.053646  0.037140     48.000000
  0.061900  0.061900  0.037140     24.000000
  0.070153  0.061900  0.037140     48.000000
  0.078406  0.061900  0.037140     48.000000
  0.086659  0.061900  0.037140     48.000000
  0.094913  0.061900  0.037140     48.000000
  0.103166  0.061900  0.037140     48.000000
  0.111419  0.061900  0.037140     48.000000
  0.119673  0.061900  0.037140     48.000000
  0.070153  0.070153  0.037140     24.000000
  0.078406  0.070153  0.037140     48.000000
  0.086659  0.070153  0.037140     48.000000
  0.094913  0.070153  0.037140     48.000000
  0.103166  0.070153  0.037140     48.000000
  0.111419  0.070153  0.037140     48.000000
  0.119673  0.070153  0.037140     48.000000
  0.078406  0.078406  0.037140     24.000000
  0.086659  0.078406  0.037140     48.000000
  0.094913  0.078406  0.037140     48.000000
  0.103166  0.078406  0.037140     48.000000
  0.111419  0.078406  0.037140     48.000000
  0.119673  0.078406  0.037140     48.000000
  0.086659  0.086659  0.037140     24.000000
  0.094913  0.086659  0.037140     48.000000
  0.103166  0.086659  0.037140     48.000000
  0.111419  0.086659  0.037140     48.000000
  0.119673  0.086659  0.037140     48.000000
  0.094913  0.094913  0.037140     24.000000
  0.103166  0.094913  0.037140     48.000000
  0.111419  0.094913  0.037140     48.000000
  0.119673  0.094913  0.037140     48.000000
  0.103166  0.103166  0.037140     24.000000
  0.111419  0.103166  0.037140     48.000000
  0.119673  0.103166  0.037140     48.000000
  0.111419  0.111419  0.037140     24.000000
  0.119673  0.111419  0.037140     48.000000
  0.119673  0.119673  0.037140     24.000000
  0.045393  0.045393  0.045393      8.000000
  0.053646  0.045393  0.045393     24.000000
  0.061900  0.045393  0.045393     24.000000
  0.070153  0.045393  0.045393     24.000000
  0.078406  0.045393  0.045393     24.000000
  0.086659  0.045393  0.045393     24.000000
  0.094913  0.045393  0.045393     24.000000
  0.103166  0.045393  0.045393     24.000000
  0.111419  0.045393  0.045393     24.000000
  0.119673  0.045393  0.045393     24.000000
  0.053646  0.053646  0.045393     24.000000
  0.061900  0.053646  0.045393     48.000000
  0.070153  0.053646  0.045393     48.000000
  0.078406  0.053646  0.045393     48.000000
  0.086659  0.053646  0.045393     48.000000
  0.094913  0.053646  0.045393     48.000000
  0.103166  0.053646  0.045393     48.000000
  0.111419  0.053646  0.045393     48.000000
  0.119673  0.053646  0.045393     48.000000
  0.061900  0.061900  0.045393     24.000000
  0.070153  0.061900  0.045393     48.000000
  0.078406  0.061900  0.045393     48.000000
  0.086659  0.061900  0.045393     48.000000
  0.094913  0.061900  0.045393     48.000000
  0.103166  0.061900  0.045393     48.000000
  0.111419  0.061900  0.045393     48.000000
  0.119673  0.061900  0.045393     48.000000
  0.070153  0.070153  0.045393     24.000000
  0.078406  0.070153  0.045393     48.000000
  0.086659  0.070153  0.045393     48.000000
  0.094913  0.070153  0.045393     48.000000
  0.103166  0.070153  0.045393     48.000000
  0.111419  0.070153  0.045393     48.000000
  0.119673  0.070153  0.045393     48.000000
  0.078406  0.078406  0.045393     24.000000
  0.086659  0.078406  0.045393     48.000000
  0.094913  0.078406  0.045393     48.000000
  0.103166  0.078406  0.045393     48.000000
  0.111419  0.078406  0.045393     48.000000
  0.119673  0.078406  0.045393     48.000000
  0.086659  0.086659  0.045393     24.000000
  0.094913  0.086659  0.045393     48.000000
  0.103166  0.086659  0.045393     48.000000
  0.111419  0.086659  0.045393     48.000000
  0.119673  0.086659  0.045393     48.000000
  0.094913  0.094913  0.045393     24.000000
  0.103166  0.094913  0.045393     48.000000
  0.111419  0.094913  0.045393     48.000000
  0.119673  0.094913  0.045393     48.000000
  0.103166  0.103166  0.045393     24.000000
  0.111419  0.103166  0.045393     48.000000
  0.119673  0.103166  0.045393     48.000000
  0.111419  0.111419  0.045393     24.000000
  0.119673  0.111419  0.045393     48.000000
  0.119673  0.119673  0.045393     24.000000
  0.053646  0.053646  0.053646      8.000000
  0.061900  0.053646  0.053646     24.000000
  0.070153  0.053646  0.053646     24.000000
  0.078406  0.053646  0.053646     24.000000
  0.086659  0.053646  0.053646     24.000000
  0.094913  0.053646  0.053646     24.000000
  0.103166  0.053646  0.053646     24.000000
  0.111419  0.053646  0.053646     24.000000
  0.119673  0.053646  0.053646     24.000000
  0.061900  0.061900  0.053646     24.000000
  0.070153  0.061900  0.053646     48.000000
  0.078406  0.061900  0.053646     48.000000
  0.086659  0.061900  0.053646     48.000000
  0.094913  0.061900  0.053646     48.000000
  0.103166  0.061900  0.053646     48.000000
  0.111419  0.061900  0.053646     48.000000
  0.119673  0.061900  0.053646     48.000000
  0.070153  0.070153  0.053646     24.000000
  0.078406  0.070153  0.053646     48.000000
  0.086659  0.070153  0.053646     48.000000
  0.094913  0.070153  0.053646     48.000000
  0.103166  0.070153  0.053646     48.000000
  0.111419  0.070153  0.053646     48.000000
  0.119673  0.070153  0.053646     48.000000
  0.078406  0.078406  0.053646     24.000000
  0.086659  0.078406  0.053646     48.000000
  0.094913  0.078406  0.053646     48.000000
  0.103166  0.078406  0.053646     48.000000
  0.111419  0.078406  0.053646     48.000000
  0.119673  0.078406  0.053646     48.000000
  0.086659  0.086659  0.053646     24.000000
  0.094913  0.086659  0.053646     48.000000
  0.103166  0.086659  0.053646     48.000000
  0.111419  0.086659  0.053646     48.000000
  0.119673  0.086659  0.053646     48.000000
  0.094913  0.094913  0.053646     24.000000
  0.103166  0.094913  0.053646     48.000000
  0.111419  0.094913  0.053646     48.000000
  0.119673  0.094913  0.053646     48.000000
  0.103166  0.103166  0.053646     24.000000
  0.111419  0.103166  0.053646     48.000000
  0.119673  0.103166  0.053646     48.000000
  0.111419  0.111419  0.053646     24.000000
  0.119673  0.111419  0.053646     48.000000
  0.119673  0.119673  0.053646     24.000000
  0.061900  0.061900  0.061900      8.000000
  0.070153  0.061900  0.061900     24.000000
  0.078406  0.061900  0.061900     24.000000
  0.086659  0.061900  0.061900     24.000000
  0.094913  0.061900  0.061900     24.000000
  0.103166  0.061900  0.061900     24.000000
  0.111419  0.061900  0.061900     24.000000
  0.119673  0.061900  0.061900     24.000000
  0.070153  0.070153  0.061900     24.000000
  0.078406  0.070153  0.061900     48.000000
  0.086659  0.070153  0.061900     48.000000
  0.094913  0.070153  0.061900     48.000000
  0.103166  0.070153  0.061900     48.000000
  0.111419  0.070153  0.061900     48.000000
  0.119673  0.070153  0.061900     48.000000
  0.078406  0.078406  0.061900     24.000000
  0.086659  0.078406  0.061900     48.000000
  0.094913  0.078406  0.061900     48.000000
  0.103166  0.078406  0.061900     48.000000
  0.111419  0.078406  0.061900     48.000000
  0.119673  0.078406  0.061900     48.000000
  0.086659  0.086659  0.061900     24.000000
  0.094913  0.086659  0.061900     48.000000
  0.103166  0.086659  0.061900     48.000000
  0.111419  0.086659  0.061900     48.000000
  0.119673  0.086659  0.061900     48.000000
  0.094913  0.094913  0.061900     24.000000
  0.103166  0.094913  0.061900     48.000000
  0.111419  0.094913  0.061900     48.000000
  0.119673  0.094913  0.061900     48.000000
  0.103166  0.103166  0.061900     24.000000
  0.111419  0.103166  0.061900     48.000000
  0.119673  0.103166  0.061900     48.000000
  0.111419  0.111419  0.061900     24.000000
  0.119673  0.111419  0.061900     48.000000
  0.119673  0.119673  0.061900     24.000000
  0.070153  0.070153  0.070153      8.000000
  0.078406  0.070153  0.070153     24.000000
  0.086659  0.070153  0.070153     24.000000
  0.094913  0.070153  0.070153     24.000000
  0.103166  0.070153  0.070153     24.000000
  0.111419  0.070153  0.070153     24.000000
  0.119673  0.070153  0.070153     24.000000
  0.078406  0.078406  0.070153     24.000000
  0.086659  0.078406  0.070153     48.000000
  0.094913  0.078406  0.070153     48.000000
  0.103166  0.078406  0.070153     48.000000
  0.111419  0.078406  0.070153     48.000000
  0.119673  0.078406  0.070153     48.000000
  0.086659  0.086659  0.070153     24.000000
  0.094913  0.086659  0.070153     48.000000
  0.103166  0.086659  0.070153     48.000000
  0.111419  0.086659  0.070153     48.000000
  0.119673  0.086659  0.070153     48.000000
  0.094913  0.094913  0.070153     24.000000
  0.103166  0.094913  0.070153     48.000000
  0.111419  0.094913  0.070153     48.000000
  0.119673  0.094913  0.070153     48.000000
  0.103166  0.103166  0.070153     24.000000
  0.111419  0.103166  0.070153     48.000000
  0.119673  0.103166  0.070153     48.000000
  0.111419  0.111419  0.070153     24.000000
  0.119673  0.111419  0.070153     48.000000
  0.119673  0.119673  0.070153     24.000000
  0.078406  0.078406  0.078406      8.000000
  0.086659  0.078406  0.078406     24.000000
  0.094913  0.078406  0.078406     24.000000
  0.103166  0.078406  0.078406     24.000000
  0.111419  0.078406  0.078406     24.000000
  0.119673  0.078406  0.078406     24.000000
  0.086659  0.086659  0.078406     24.000000
  0.094913  0.086659  0.078406     48.000000
  0.103166  0.086659  0.078406     48.000000
  0.111419  0.086659  0.078406     48.000000
  0.119673  0.086659  0.078406     48.000000
  0.094913  0.094913  0.078406     24.000000
  0.103166  0.094913  0.078406     48.000000
  0.111419  0.094913  0.078406     48.000000
  0.119673  0.094913  0.078406     48.000000
  0.103166  0.103166  0.078406     24.000000
  0.111419  0.103166  0.078406     48.000000
  0.119673  0.103166  0.078406     48.000000
  0.111419  0.111419  0.078406     24.000000
  0.119673  0.111419  0.078406     48.000000
  0.119673  0.119673  0.078406     24.000000
  0.086659  0.086659  0.086659      8.000000
  0.094913  0.086659  0.086659     24.000000
  0.103166  0.086659  0.086659     24.000000
  0.111419  0.086659  0.086659     24.000000
  0.119673  0.086659  0.086659     24.000000
  0.094913  0.094913  0.086659     24.000000
  0.103166  0.094913  0.086659     48.000000
  0.111419  0.094913  0.086659     48.000000
  0.119673  0.094913  0.086659     48.000000
  0.103166  0.103166  0.086659     24.000000
  0.111419  0.103166  0.086659     48.000000
  0.119673  0.103166  0.086659     48.000000
  0.111419  0.111419  0.086659     24.000000
  0.119673  0.111419  0.086659     48.000000
  0.119673  0.119673  0.086659     24.000000
  0.094913  0.094913  0.094913      8.000000
  0.103166  0.094913  0.094913     24.000000
  0.111419  0.094913  0.094913     24.000000
  0.119673  0.094913  0.094913     24.000000
  0.103166  0.103166  0.094913     24.000000
  0.111419  0.103166  0.094913     48.000000
  0.119673  0.103166  0.094913     48.000000
  0.111419  0.111419  0.094913     24.000000
  0.119673  0.111419  0.094913     48.000000
  0.119673  0.119673  0.094913     24.000000
  0.103166  0.103166  0.103166      8.000000
  0.111419  0.103166  0.103166     24.000000
  0.119673  0.103166  0.103166     24.000000
  0.111419  0.111419  0.103166     24.000000
  0.119673  0.111419  0.103166     48.000000
  0.119673  0.119673  0.103166     24.000000
  0.111419  0.111419  0.111419      8.000000
  0.119673  0.111419  0.111419     24.000000
  0.119673  0.119673  0.111419     24.000000
  0.119673  0.119673  0.119673      8.000000
 


--------------------------------------------------------------------------------------------------------




 Dimension of arrays:
   k-points           NKPTS =    680   k-points in BZ     NKDIM =    680   number of bands    NBANDS=     12
   number of dos      NEDOS =    301   number of ions     NIONS =      4
   non local maximal  LDIM  =      4   non local SUM 2l+1 LMDIM =      8
   total plane-waves  NPLWV =  13824
   max r-space proj   IRMAX =      1   max aug-charges    IRDMAX=  61758
   dimension x,y,z NGX =    24 NGY =   24 NGZ =   24
   dimension x,y,z NGXF=    48 NGYF=   48 NGZF=   48
   support grid    NGXF=    96 NGYF=   96 NGZF=   96
   ions per type =               4
   NGX,Y,Z   is equivalent  to a cutoff of   9.69,  9.69,  9.69 a.u.
   NGXF,Y,Z  is equivalent  to a cutoff of  19.37, 19.37, 19.37 a.u.

 SYSTEM =  unknown system                          
 POSCAR =  Al4                                     

 Startparameter for this run:
   NWRITE =      2    write-flag & timer
   PREC   = accura    normal or accurate (medium, high low for compatibility)
   ISTART =      0    job   : 0-new  1-cont  2-samecut
   ICHARG =      2    charge: 1-file 2-atom 10-const
   ISPIN  =      1    spin polarized calculation?
   LNONCOLLINEAR =      F non collinear calculations
   LSORBIT =      F    spin-orbit coupling
   INIWAV =      1    electr: 0-lowe 1-rand  2-diag
   LASPH  =      F    aspherical Exc in radial PAW
 Electronic Relaxation 1
   ENCUT  =  300.0 eV  22.05 Ry    4.70 a.u.   5.82  5.82  5.82*2*pi/ulx,y,z
   ENINI  =  300.0     initial cutoff
   ENAUG  =  291.1 eV  augmentation charge cutoff
   NELM   =    300;   NELMIN=  5; NELMDL= -5     # of ELM steps 
   EDIFF  = 0.1E-07   stopping-criterion for ELM
   LREAL  =      F    real-space projection
   NLSPLINE    = F    spline interpolate recip. space projectors
   LCOMPAT=      F    compatible to vasp.4.4
   GGA_COMPAT  = T    GGA compatible to vasp.4.4-vasp.4.6
   LMAXPAW     = -100 max onsite density
   LMAXMIX     =    2 max onsite mixed and CHGCAR
   VOSKOWN=      0    Vosko Wilk Nusair interpolation
   ROPT   =    0.00000
 Ionic relaxation
   EDIFFG = -.1E-07   stopping-criterion for IOM
   NSW    =    500    number of steps for IOM
   NBLOCK =      1;   KBLOCK =    500    inner block; outer block 
   IBRION =      2    ionic relax: 0-MD 1-quasi-New 2-CG
   NFREE  =      1    steps in history (QN), initial steepest desc. (CG)
   ISIF   =      2    stress and relaxation
   IWAVPR =     11    prediction:  0-non 1-charg 2-wave 3-comb
   ISYM   =      2    0-nonsym 1-usesym 2-fastsym
   LCORR  =      T    Harris-Foulkes like correction to forces

   POTIM  = 0.5000    time-step for ionic-motion
   TEIN   =    0.0    initial temperature
   TEBEG  =    0.0;   TEEND  =   0.0 temperature during run
   SMASS  =  -3.00    Nose mass-parameter (am)
   estimated Nose-frequenzy (Omega)   =  0.10E-29 period in steps = 0.13E+47 mass=  -0.388E-27a.u.
   SCALEE = 1.0000    scale energy and forces
   NPACO  =    256;   APACO  = 10.0  distance and # of slots for P.C.
   PSTRESS=    0.0 pullay stress

  Mass of Ions in am
   POMASS =  26.98
  Ionic Valenz
   ZVAL   =   3.00
  Atomic Wigner-Seitz radii
   RWIGS  =  -1.00
  virtual crystal weights 
   VCA    =   1.00
   NELECT =      12.0000    total number of electrons
   NUPDOWN=      -1.0000    fix difference up-down

 DOS related values:
   EMIN   =  10.00;   EMAX   =-10.00  energy-range for DOS
   EFERMI =   0.00
   ISMEAR =     1;   SIGMA  =   0.20  broadening in eV -4-tet -1-fermi 0-gaus

 Electronic relaxation 2 (details)
   IALGO  =     38    algorithm
   LDIAG  =      T    sub-space diagonalisation (order eigenvalues)
   LSUBROT=      F    optimize rotation matrix (better conditioning)
   TURBO    =      0    0=normal 1=particle mesh
   IRESTART =      0    0=no restart 2=restart with 2 vectors
   NREBOOT  =      0    no. of reboots
   NMIN     =      0    reboot dimension
   EREF     =   0.00    reference energy to select bands
   IMIX   =      4    mixing-type and parameters
     AMIX     =   0.40;   BMIX     =  1.00
     AMIX_MAG =   1.60;   BMIX_MAG =  1.00
     AMIN     =   0.10
     WC   =   100.;   INIMIX=   1;  MIXPRE=   1;  MAXMIX= -45

 Intra band minimization:
   WEIMIN = 0.0010     energy-eigenvalue tresh-hold
   EBREAK =  0.21E-10  absolut break condition
   DEPER  =   0.30     relativ break condition  

   TIME   =   0.40     timestep for ELM

  volume/ion in A,a.u.               =      17.48       117.95
  Fermi-wavevector in a.u.,A,eV,Ry     =   0.909807  1.719287 11.262218  0.827750
  Thomas-Fermi vector in A             =   2.033896
 
 Write flags
   LWAVE        =      F    write WAVECAR
   LDOWNSAMPLE  =      F    k-point downsampling of WAVECAR
   LCHARG       =      F    write CHGCAR
   LVTOT        =      F    write LOCPOT, total local potential
   LVHAR        =      F    write LOCPOT, Hartree potential only
   LELF         =      F    write electronic localiz. function (ELF)
   LORBIT       =      0    0 simple, 1 ext, 2 COOP (PROOUT), +10 PAW based schemes


 Dipole corrections
   LMONO  =      F    monopole corrections only (constant potential shift)
   LDIPOL =      F    correct potential (dipole corrections)
   IDIPOL =      0    1-x, 2-y, 3-z, 4-all directions 
   EPSILON=  1.0000000 bulk dielectric constant

 Exchange correlation treatment:
   GGA     =    --    GGA type
   LEXCH   =     8    internal setting for exchange type
   LIBXC   =     F    Libxc                    
   VOSKOWN =     0    Vosko Wilk Nusair interpolation
   LHFCALC =     F    Hartree Fock is set to
   LHFONE  =     F    Hartree Fock one center treatment
   AEXX    =    0.0000 exact exchange contribution

 Linear response parameters
   LEPSILON=     F    determine dielectric tensor
   LRPA    =     F    only Hartree local field effects (RPA)
   LNABLA  =     F    use nabla operator in PAW spheres
   LVEL    =     F    velocity operator in full k-point grid
   CSHIFT  =0.1000    complex shift for real part using Kramers Kronig
   OMEGAMAX=  -1.0    maximum frequency
   DEG_THRESHOLD= 0.2000000E-02 threshold for treating states as degnerate
   RTIME   =   -0.100 relaxation time in fs
  (WPLASMAI=    0.000 imaginary part of plasma frequency in eV, 0.658/RTIME)
   DFIELD  = 0.0000000 0.0000000 0.0000000 field for delta impulse in time
 
  Optional k-point grid parameters
   LKPOINTS_OPT  =     F    use optional k-point grid
   KPOINTS_OPT_MODE=     1    mode for optional k-point grid
 
 Orbital magnetization related:
   ORBITALMAG=     F  switch on orbital magnetization
   LCHIMAG   =     F  perturbation theory with respect to B field
   DQ        =  0.001000  dq finite difference perturbation B field
   LLRAUG    =     F  two centre corrections for induced B field



--------------------------------------------------------------------------------------------------------


 conjugate gradient relaxation of ions
 charge density and potential will be updated during run
 non-spin polarized calculation
 Variant of blocked Davidson
 Davidson routine will perform the subspace rotation
 perform sub-space diagonalisation
    after iterative eigenvector-optimisation
 modified Broyden-mixing scheme, WC =      100.0
 initial mixing is a Kerker type mixing with AMIX =  0.4000 and BMIX =      1.0000
 Hartree-type preconditioning will be used
 using additional bands            6
 reciprocal scheme for non local part
 use partial core corrections
 calculate Harris-corrections to forces 
   (improved forces if not selfconsistent)
 use gradient corrections 
 use of overlap-Matrix (Vanderbilt PP)
 Methfessel and Paxton  Order N= 1 SIGMA  =   0.20


--------------------------------------------------------------------------------------------------------


  energy-cutoff  :      300.00
  volume of cell :       69.91
      direct lattice vectors                 reciprocal lattice vectors
[...]

 k-point   656 :       0.4500    0.4167    0.3500
  band No.  band energies     occupation 
      1       0.9597      2.00000
      2       1.8055      2.00000
      3       2.3667      2.00000
      4       3.2010      2.00000
      5       3.4892      2.00000
      6       4.3183      2.00000
      7       4.8715      2.00000
      8       5.6985      2.00000
      9      14.9150      0.00000
     10      15.5990      0.00000
     11      15.9101      0.00000
     12      16.0263      0.00000

 k-point   657 :       0.4833    0.4167    0.3500
  band No.  band energies     occupation 
      1       1.2235      2.00000
      2       1.5054      2.00000
      3       2.6278      2.00000
      4       2.9068      2.00000
      5       3.7455      2.00000
      6       4.0225      2.00000
      7       5.1291      2.00000
      8       5.4050      2.00000
      9      15.1394      0.00000
     10      15.3704      0.00000
     11      16.1017      0.00000
     12      16.2570      0.00000

 k-point   658 :       0.4500    0.4500    0.3500
  band No.  band energies     occupation 
      1       1.2046      2.00000
      2       2.0491      2.00000
      3       2.0491      2.00000
      4       2.8883      2.00000
      5       3.7269      2.00000
      6       4.5581      2.00000
      7       4.5581      2.00000
      8       5.3868      2.00000
      9      15.1288      0.00000
     10      15.8152      0.00000
     11      15.8152      0.00000
     12      16.5195      0.00000

 k-point   659 :       0.4833    0.4500    0.3500
  band No.  band energies     occupation 
      1       1.4679      2.00000
      2       1.7494      2.00000
      3       2.3109      2.00000
      4       2.5908      2.00000
      5       3.9856      2.00000
      6       4.2630      2.00000
      7       4.8165      2.00000
      8       5.0928      2.00000
      9      15.3535      0.00000
     10      15.5849      0.00000
     11      16.0422      0.00000
     12      16.2783      0.00000

 k-point   660 :       0.4833    0.4833    0.3500
  band No.  band energies     occupation 
      1       1.7308      2.00000
      2       2.0119      2.00000
      3       2.0119      2.00000
      4       2.2923      2.00000
      5       4.2446      2.00000
      6       4.5214      2.00000
      7       4.5214      2.00000
      8       4.7979      2.00000
      9      15.5785      0.00000
     10      15.8107      0.00000
     11      15.8107      0.00000
     12      16.0442      0.00000

 k-point   661 :       0.3833    0.3833    0.3833
  band No.  band energies     occupation 
      1       0.4689      2.00000
      2       2.4408      2.00000
      3       2.4408      2.00000
      4       2.4408      2.00000
      5       4.3918      2.00000
      6       4.3918      2.00000
      7       4.3918      2.00000
      8       6.3206      2.00000
      9      14.9972      0.00000
     10      14.9972      0.00000
     11      14.9972      0.00000
     12      16.0760      0.00000

 k-point   662 :       0.4167    0.3833    0.3833
  band No.  band energies     occupation 
      1       0.6956      2.00000
      2       2.1049      2.00000
      3       2.6647      2.00000
      4       2.6647      2.00000
      5       4.0599      2.00000
      6       4.0599      2.00000
      7       4.6137      2.00000
      8       5.9918      2.00000
      9      15.1933      0.00000
     10      15.1933      0.00000
     11      15.7014      0.00000
     12      16.1367      0.00000

 k-point   663 :       0.4500    0.3833    0.3833
  band No.  band energies     occupation 
      1       0.9409      2.00000
      2       1.7868      2.00000
      3       2.9065      2.00000
      4       2.9065      2.00000
      5       3.7459      2.00000
      6       3.7459      2.00000
      7       4.8533      2.00000
      8       5.6806      2.00000
      9      15.3993      0.00000
     10      15.3993      0.00000
     11      16.0174      0.00000
     12      16.0174      0.00000

 k-point   664 :       0.4833    0.3833    0.3833
  band No.  band energies     occupation 
      1       1.2047      2.00000
      2       1.4867      2.00000
      3       3.1639      2.00000
      4       3.1639      2.00000
      5       3.4524      2.00000
      6       3.4524      2.00000
      7       5.1111      2.00000
      8       5.3870      2.00000
      9      15.6096      0.00000
     10      15.6096      0.00000
     11      15.8299      0.00000
     12      15.8299      0.00000

 k-point   665 :       0.4167    0.4167    0.3833
  band No.  band energies     occupation 
      1       0.9221      2.00000
      2       2.3293      2.00000
      3       2.3293      2.00000
      4       2.8880      2.00000
      5       3.7276      2.00000
      6       4.2815      2.00000
      7       4.2815      2.00000
      8       5.6624      2.00000
      9      15.3897      0.00000
     10      15.8899      0.00000
     11      15.8899      0.00000
     12      16.3368      0.00000

 k-point   666 :       0.4500    0.4167    0.3833
  band No.  band energies     occupation 
      1       1.1670      2.00000
      2       2.0117      2.00000
      3       2.5720      2.00000
      4       3.1271      2.00000
      5       3.4154      2.00000
      6       3.9675      2.00000
      7       4.5220      2.00000
      8       5.3506      2.00000
      9      15.5966      0.00000
     10      16.0837      0.00000
     11      16.2160      0.00000
     12      16.5556      0.00000

 k-point   667 :       0.4833    0.4167    0.3833
  band No.  band energies     occupation 
      1       1.4304      2.00000
      2       1.7120      2.00000
      3       2.8325      2.00000
      4       3.1088      2.00000
      5       3.3964      2.00000
      6       3.6718      2.00000
      7       4.7802      2.00000
      8       5.0566      2.00000
      9      15.8096      0.00000
     10      16.0210      0.00000
     11      16.2806      0.00000
     12      16.4532      0.00000

 k-point   668 :       0.4500    0.4500    0.3833
  band No.  band energies     occupation 
      1       1.4115      2.00000
      2       2.2549      2.00000
      3       2.2549      2.00000
      4       3.0904      2.00000
      5       3.3778      2.00000
      6       4.2079      2.00000
      7       4.2079      2.00000
      8       5.0383      2.00000
      9      15.8038      0.00000
     10      16.4267      0.00000
     11      16.4267      0.00000
     12      16.7616      0.00000

 k-point   669 :       0.4833    0.4500    0.3833
  band No.  band energies     occupation 
      1       1.6745      2.00000
      2       1.9558      2.00000
      3       2.5163      2.00000
      4       2.7955      2.00000
      5       3.6348      2.00000
      6       3.9122      2.00000
      7       4.4667      2.00000
      8       4.7436      2.00000
      9      16.0182      0.00000
     10      16.2319      0.00000
     11      16.6500      0.00000
     12      16.8974      0.00000

 k-point   670 :       0.4833    0.4833    0.3833
  band No.  band energies     occupation 
      1       1.9371      2.00000
      2       2.2177      2.00000
      3       2.2177      2.00000
      4       2.4978      2.00000
      5       3.8937      2.00000
      6       4.1710      2.00000
      7       4.1710      2.00000
      8       4.4483      2.00000
      9      16.2341      0.00000
     10      16.4504      0.00000
     11      16.4504      0.00000
     12      16.6729      0.00000

 k-point   671 :       0.4167    0.4167    0.4167
  band No.  band energies     occupation 
      1       1.1482      2.00000
      2       2.5534      2.00000
      3       2.5534      2.00000
      4       2.5534      2.00000
      5       3.9493      2.00000
      6       3.9493      2.00000
      7       3.9493      2.00000
      8       5.3326      2.00000
      9      16.0797      0.00000
     10      16.0797      0.00000
     11      16.0797      0.00000
     12      16.6803      0.00000

 k-point   672 :       0.4500    0.4167    0.4167
  band No.  band energies     occupation 
      1       1.3928      2.00000
      2       2.2362      2.00000
      3       2.7954      2.00000
      4       2.7954      2.00000
      5       3.6350      2.00000
      6       3.6350      2.00000
      7       4.1896      2.00000
      8       5.0201      2.00000
      9      16.2760      0.00000
     10      16.2760      0.00000
     11      16.7548      0.00000
     12      16.7642      0.00000

 k-point   673 :       0.4833    0.4167    0.4167
  band No.  band energies     occupation 
      1       1.6558      2.00000
      2       1.9370      2.00000
      3       3.0535      2.00000
      4       3.0535      2.00000
      5       3.3407      2.00000
      6       3.3407      2.00000
      7       4.4481      2.00000
      8       4.7253      2.00000
      9      16.4714      0.00000
     10      16.4714      0.00000
     11      16.6478      0.00000
     12      16.6478      0.00000

 k-point   674 :       0.4500    0.4500    0.4167
  band No.  band energies     occupation 
      1       1.6370      2.00000
      2       2.4791      2.00000
      3       2.4791      2.00000
      4       3.0351      2.00000
      5       3.3222      2.00000
      6       3.8754      2.00000
      7       3.8754      2.00000
      8       4.7072      2.00000
      9      16.4739      0.00000
     10      16.9445      0.00000
     11      16.9498      0.00000
     12      16.9689      0.00000

 k-point   675 :       0.4833    0.4500    0.4167
  band No.  band energies     occupation 
      1       1.8997      2.00000
      2       2.1804      2.00000
      3       2.7399      2.00000
      4       3.0167      2.00000
      5       3.3034      2.00000
      6       3.5794      2.00000
      7       4.1343      2.00000
      8       4.4114      2.00000
      9      16.6722      0.00000
     10      16.8536      0.00000
     11      17.1085      0.00000
     12      17.1979      0.00000

 k-point   676 :       0.4833    0.4833    0.4167
  band No.  band energies     occupation 
      1       2.1617      2.00000
      2       2.4419      2.00000
      3       2.4419      2.00000
      4       2.7214      2.00000
      5       3.5608      2.00000
      6       3.8384      2.00000
      7       3.8384      2.00000
      8       4.1159      2.00000
      9      16.8756      0.00000
     10      17.0660      0.00000
     11      17.0660      0.00000
     12      17.2705      0.00000

 k-point   677 :       0.4500    0.4500    0.4500
  band No.  band energies     occupation 
      1       1.8810      2.00000
      2       2.7213      2.00000
      3       2.7213      2.00000
      4       2.7213      2.00000
      5       3.5609      2.00000
      6       3.5609      2.00000
      7       3.5609      2.00000
      8       4.3931      2.00000
      9      17.1290      0.00000
     10      17.1292      0.00000
     11      17.1326      0.00000
     12      17.3306      0.00000

 k-point   678 :       0.4833    0.4500    0.4500
  band No.  band energies     occupation 
      1       2.1432      2.00000
      2       2.4234      2.00000
      3       2.9799      2.00000
      4       2.9799      2.00000
      5       3.2663      2.00000
      6       3.2663      2.00000
      7       3.8200      2.00000
      8       4.0975      2.00000
      9      17.2997      0.00000
     10      17.2998      0.00000
     11      17.4109      0.00000
     12      17.4136      0.00000

 k-point   679 :       0.4833    0.4833    0.4500
  band No.  band energies     occupation 
      1       2.4048      2.00000
      2       2.6843      2.00000
      3       2.6843      2.00000
      4       2.9614      2.00000
      5       3.2476      2.00000
      6       3.5239      2.00000
      7       3.5239      2.00000
      8       3.8016      2.00000
      9      17.4864      0.00000
     10      17.6199      0.00000
     11      17.6231      0.00000
     12      17.8131      0.00000

 k-point   680 :       0.4833    0.4833    0.4833
  band No.  band energies     occupation 
      1       2.6657      2.00000
      2       2.9430      2.00000
      3       2.9430      2.00000
      4       2.9430      2.00000
      5       3.2290      2.00000
      6       3.2290      2.00000
      7       3.2290      2.00000
      8       3.5054      2.00000
      9      18.0062      0.00000
     10      18.0111      0.00000
     11      18.0170      0.00000
     12      18.0181      0.00000


--------------------------------------------------------------------------------------------------------


 soft charge-density along one line, spin component           1
         0         1         2         3         4         5         6         7         8         9
 total charge-density along one line
 
 pseudopotential strength for first ion, spin component:           1
  8.463  14.425  -0.000  -0.000   0.000  -0.000  -0.000   0.000
 14.425  24.587  -0.000  -0.000   0.000  -0.000  -0.000   0.000
 -0.000  -0.000   1.985  -0.000   0.000   5.729  -0.000   0.000
 -0.000  -0.000  -0.000   1.985  -0.000  -0.000   5.729  -0.000
  0.000   0.000   0.000  -0.000   1.985   0.000  -0.000   5.729
 -0.000  -0.000   5.729  -0.000   0.000  16.441  -0.000   0.000
 -0.000  -0.000  -0.000   5.729  -0.000  -0.000  16.441  -0.000
  0.000   0.000   0.000  -0.000   5.729   0.000  -0.000  16.441
 total augmentation occupancy for first ion, spin component:           1
  3.194  -0.751   0.000  -0.000   0.000   0.000  -0.000   0.000
 -0.751   0.247   0.000   0.000   0.000   0.000   0.000  -0.000
  0.000   0.000   1.100   0.000   0.000  -0.080  -0.000  -0.000
 -0.000   0.000   0.000   1.100   0.000  -0.000  -0.080  -0.000
  0.000   0.000   0.000   0.000   1.100  -0.000  -0.000  -0.080
  0.000   0.000  -0.080  -0.000  -0.000   0.006   0.000   0.000
 -0.000   0.000  -0.000  -0.080  -0.000   0.000   0.006   0.000
  0.000  -0.000  -0.000  -0.000  -0.080   0.000   0.000   0.006


------------------------ aborting loop because EDIFF is reached ----------------------------------------


    CHARGE:  cpu time      0.0643: real time      0.0646
    FORLOC:  cpu time      0.0001: real time      0.0001
    FORNL :  cpu time      0.0674: real time      0.0677
    STRESS:  cpu time      0.2961: real time      0.2972
    FORCOR:  cpu time      0.0059: real time      0.0059
    FORHAR:  cpu time      0.0016: real time      0.0016
    MIXING:  cpu time      0.0003: real time      0.0003
    OFIELD:  cpu time      0.0000: real time      0.0000

  FORCE on cell =-STRESS in cart. coord.  units (eV):
  Direction    XX          YY          ZZ          XY          YZ          ZX
  --------------------------------------------------------------------------------------
  Alpha Z    -0.76868    -0.76868    -0.76868
  Ewald     -96.15711   -96.15711   -96.15711    -0.00000     0.00000     0.00000
  Hartree     0.13257     0.13257     0.13257    -0.00000    -0.00000    -0.00000
  E(xc)     -33.66870   -33.66870   -33.66870     0.00000    -0.00000    -0.00000
  Local       0.32687     0.32687     0.32687     0.00000     0.00000     0.00000
  n-local    73.68977    74.48261    76.08098     0.11608     0.76412     0.30589
  augment    -4.22344    -4.22344    -4.22344    -0.00000    -0.00000    -0.00000
  Kinetic    55.18302    57.17693    61.18515     1.59325    -8.25980    -1.84982
  Fock        0.00000     0.00000     0.00000     0.00000     0.00000     0.00000
  -------------------------------------------------------------------------------------
  Total      -1.75902    -1.75902    -1.75902    -0.00000     0.00000     0.00000
  in kB     -40.31096   -40.31096   -40.31096    -0.00000     0.00000     0.00000
  external pressure =      -40.31 kB  Pullay stress =        0.00 kB


 VOLUME and BASIS-vectors are now :
 -----------------------------------------------------------------------------
  energy-cutoff  :      300.00
  volume of cell :       69.91
      direct lattice vectors                 reciprocal lattice vectors
     4.119574966  0.000000000  0.000000000     0.242743489 -0.000000000  0.000000000
     0.000000000  4.119574966  0.000000000     0.000000000  0.242743489  0.000000000
     0.000000000  0.000000000  4.119574966    -0.000000000 -0.000000000  0.242743489

  length of vectors
     4.119574966  4.119574966  4.119574966     0.242743489  0.242743489  0.242743489


 FORCES acting on ions
    electron-ion (+dipol)            ewald-force                    non-local-force                 convergence-correction
 -----------------------------------------------------------------------------------------------
   0.209E-14 0.102E-14 -.911E-15   -.319E-15 0.415E-15 -.774E-15   0.658E-26 -.707E-27 0.808E-27   -.708E-16 -.970E-16 0.550E-16
   -.253E-15 -.348E-14 -.373E-14   -.354E-15 -.216E-15 0.238E-15   0.765E-26 0.000E+00 -.727E-26   -.734E-16 0.102E-15 -.611E-16
   -.309E-14 -.735E-15 -.434E-13   0.334E-15 0.170E-15 0.474E-15   0.290E-26 0.000E+00 0.242E-26   0.833E-16 -.935E-16 -.497E-16
   -.321E-14 -.364E-14 -.173E-14   0.298E-15 -.461E-15 0.196E-15   -.413E-26 -.162E-26 -.162E-26   0.866E-16 0.987E-16 0.564E-16
 -----------------------------------------------------------------------------------------------
   -.447E-14 -.683E-14 -.498E-13   -.404E-16 -.917E-16 0.134E-15   0.130E-25 -.232E-26 -.565E-26   0.256E-16 0.101E-16 0.555E-18
 
 
 POSITION                                       TOTAL-FORCE (eV/Angst)
 -----------------------------------------------------------------------------------
      0.00000      0.00000      0.00000         0.000000     -0.000000     -0.000000
      0.00000      2.05979      2.05979        -0.000000     -0.000000     -0.000000
      2.05979      0.00000      2.05979         0.000000      0.000000      0.000000
      2.05979      2.05979      0.00000        -0.000000      0.000000      0.000000
 -----------------------------------------------------------------------------------
    total drift:                               -0.000000     -0.000000     -0.000000


--------------------------------------------------------------------------------------------------------



  FREE ENERGIE OF THE ION-ELECTRON SYSTEM (eV)
  ---------------------------------------------------
  free  energy   TOTEN  =       -14.91903652 eV

  energy  without entropy=      -14.91884740  energy(sigma->0) =      -14.91897348
 


--------------------------------------------------------------------------------------------------------


    POTLOK:  cpu time      0.0108: real time      0.0109


--------------------------------------------------------------------------------------------------------




--------------------------------------------------------------------------------------------------------


  
 reached required accuracy - stopping structural energy minimisation
     LOOP+:  cpu time     37.1016: real time     37.3500
    4ORBIT:  cpu time      0.0000: real time      0.0000

 total amount of memory used by VASP MPI-rank0    35994. kBytes
=======================================================================

   base      :      30000. kBytes
   nonl-proj :       2963. kBytes
   fftplans  :        388. kBytes
   grid      :        160. kBytes
   one-center:          3. kBytes
   wavefun   :       2480. kBytes
 
  
  
 General timing and accounting informations for this job:
 ========================================================
  
                  Total CPU time used (sec):       39.206
                            User time (sec):       38.791
                          System time (sec):        0.415
                         Elapsed time (sec):       40.691
  
                   Maximum memory used (kb):      226516.
                   Average memory used (kb):          N/A
  
                          Minor page faults:        40493
                          Major page faults:           72
                 Voluntary context switches:         2186
