 ----------------------------------------------------
    OOO  PPPP  EEEEE N   N M   M PPPP
   O   O P   P E     NN  N MM MM P   P
   O   O PPPP  EEEEE N N N M M M PPPP   -- VERSION
   O   O P     E     N  NN M   M P
    OOO  P     EEEEE N   N M   M P
 ----------------------------------------------------
 running   48 mpi-ranks, with    1 threads/rank
 distrk:  each k-point on   48 cores,    1 groups
 distr:  one band on   12 cores,    4 groups
 vasp.6.3.2 27Jun22 (build Aug 12 2022 00:53:59) complex                        
  
 POSCAR found type information on POSCAR Al
 POSCAR found :  1 types and       4 ions
 Reading from existing POTCAR
 scaLAPACK will be used
 Reading from existing POTCAR
 LDA part: xc-table for Pade appr. of Perdew
 POSCAR, INCAR and KPOINTS ok, starting setup
 FFT: planning ... GRIDC
 FFT: planning ... GRID_SOFT
 FFT: planning ... GRID
 WAVECAR not read
 entering main loop
       N       E                     dE             d eps       ncg     rms          rms(c)
DAV:   1     0.609741387395E+00    0.60974E+00   -0.29425E+03 16572   0.472E+02
DAV:   2    -0.145291611103E+02   -0.15139E+02   -0.14090E+02 20736   0.720E+01
DAV:   3    -0.150027840715E+02   -0.47362E+00   -0.46748E+00 20956   0.108E+01
DAV:   4    -0.150053315856E+02   -0.25475E-02   -0.25468E-02 18444   0.103E+00
DAV:   5    -0.150053512536E+02   -0.19668E-04   -0.19669E-04 20484   0.901E-02    0.252E+00
DAV:   6    -0.149556815479E+02    0.49670E-01   -0.68532E-03 18068   0.496E-01    0.147E+00
DAV:   7    -0.149191519625E+02    0.36530E-01   -0.19765E-02 18124   0.789E-01    0.261E-01
DAV:   8    -0.149190478214E+02    0.10414E-03   -0.17339E-04 20392   0.101E-01    0.191E-02
DAV:   9    -0.149190392912E+02    0.85302E-05   -0.68616E-06 19240   0.146E-02    0.338E-03
DAV:  10    -0.149190372005E+02    0.20907E-05   -0.53351E-08 21016   0.188E-03    0.248E-03
DAV:  11    -0.149190365059E+02    0.69465E-06   -0.25455E-09 19376   0.420E-04    0.160E-04
DAV:  12    -0.149190365150E+02   -0.91782E-08   -0.58978E-11 12584   0.597E-05
   1 F= -.14919037E+02 E0= -.14918973E+02  d E =-.149190E+02
 curvature:   0.00 expect dE= 0.000E+00 dE for cont linesearch  0.000E+00
 trial: gam= 0.00000 g(F)=  0.348E-63 g(S)=  0.000E+00 ort = 0.000E+00 (trialstep = 0.100E+01)
 search vector abs. value=  0.100E-09
 reached required accuracy - stopping structural energy minimisation
