<?xml version="1.0" encoding="ISO-8859-1"?>
<modeling>
 <generator>
  <i name="program" type="string">vasp </i>
  <i name="version" type="string">6.3.2  </i>
  <i name="subversion" type="string">27Jun22 (build Aug 12 2022 00:53:59) complex                          parallel </i>
  <i name="platform" type="string">tv2STD </i>
  <i name="date" type="string">2025 07 01 </i>
  <i name="time" type="string">00:10:15 </i>
 </generator>
 <incar>
  <i type="string" name="PREC">Accurate</i>
  <i type="string" name="ALGO">Normal</i>
  <i type="logical" name="ADDGRID"> T  </i>
  <i type="int" name="NELM">   300</i>
  <i type="int" name="NELMIN">     5</i>
  <i type="int" name="IBRION">     2</i>
  <i name="EDIFF">      0.00000001</i>
  <i name="EDIFFG">     -0.00000001</i>
  <i type="int" name="NSW">   500</i>
  <i type="int" name="ISIF">     2</i>
  <i name="ENCUT">    300.00000000</i>
  <i type="logical" name="LREAL"> F  </i>
  <i type="int" name="ISMEAR">     1</i>
  <i name="SIGMA">      0.20000000</i>
  <i type="logical" name="LWAVE"> F  </i>
  <i type="logical" name="LCHARG"> F  </i>
 </incar>
 <primitive_cell>
  <structure name="primitive_cell" >
   <crystal>
    <varray name="basis" >
     <v>       2.05978748      -2.05978748       0.00000000 </v>
     <v>       2.05978748       0.00000000       2.05978748 </v>
     <v>      -0.00000000      -2.05978748       2.05978748 </v>
    </varray>
    <i name="volume">     17.47822154 </i>
    <varray name="rec_basis" >
     <v>       0.24274349      -0.24274349      -0.24274349 </v>
     <v>       0.24274349       0.24274349       0.24274349 </v>
     <v>      -0.24274349      -0.24274349       0.24274349 </v>
    </varray>
   </crystal>
   <varray name="positions" >
    <v>       0.00000000       0.00000000       0.00000000 </v>
   </varray>
  </structure>
  <varray name="primitive_index" >
   <v type="int" >        1 </v>
  </varray>
 </primitive_cell>
 <kpoints>
  <generation param="Monkhorst-Pack">
   <v type="int" name="divisions">      30       30       30 </v>
   <v name="usershift">      0.00000000       0.00000000       0.00000000 </v>
   <v name="genvec1">      0.03333333      -0.00000000       0.00000000 </v>
   <v name="genvec2">      0.00000000       0.03333333       0.00000000 </v>
   <v name="genvec3">     -0.00000000      -0.00000000       0.03333333 </v>
   <v name="shift">      0.50000000       0.50000000       0.50000000 </v>
  </generation>
  <varray name="kpointlist" >
   <v>       0.01666667       0.01666667       0.01666667 </v>
   <v>       0.05000000       0.01666667       0.01666667 </v>
   <v>       0.08333333       0.01666667       0.01666667 </v>
   <v>       0.11666667       0.01666667       0.01666667 </v>
   <v>       0.15000000       0.01666667       0.01666667 </v>
   <v>       0.18333333       0.01666667       0.01666667 </v>
   <v>       0.21666667       0.01666667       0.01666667 </v>
   <v>       0.25000000       0.01666667       0.01666667 </v>
   <v>       0.28333333       0.01666667       0.01666667 </v>
   <v>       0.31666667       0.01666667       0.01666667 </v>
   <v>       0.35000000       0.01666667       0.01666667 </v>
   <v>       0.38333333       0.01666667       0.01666667 </v>
   <v>       0.41666667       0.01666667       0.01666667 </v>
   <v>       0.45000000       0.01666667       0.01666667 </v>
   <v>       0.48333333       0.01666667       0.01666667 </v>
   <v>       0.05000000       0.05000000       0.01666667 </v>
   <v>       0.08333333       0.05000000       0.01666667 </v>
   <v>       0.11666667       0.05000000       0.01666667 </v>
   <v>       0.15000000       0.05000000       0.01666667 </v>
   <v>       0.18333333       0.05000000       0.01666667 </v>
   <v>       0.21666667       0.05000000       0.01666667 </v>
   <v>       0.25000000       0.05000000       0.01666667 </v>
   <v>       0.28333333       0.05000000       0.01666667 </v>
   <v>       0.31666667       0.05000000       0.01666667 </v>
   <v>       0.35000000       0.05000000       0.01666667 </v>
   <v>       0.38333333       0.05000000       0.01666667 </v>
   <v>       0.41666667       0.05000000       0.01666667 </v>
   <v>       0.45000000       0.05000000       0.01666667 </v>
   <v>       0.48333333       0.05000000       0.01666667 </v>
   <v>       0.08333333       0.08333333       0.01666667 </v>
   <v>       0.11666667       0.08333333       0.01666667 </v>
   <v>       0.15000000       0.08333333       0.01666667 </v>
   <v>       0.18333333       0.08333333       0.01666667 </v>
   <v>       0.21666667       0.08333333       0.01666667 </v>
   <v>       0.25000000       0.08333333       0.01666667 </v>
   <v>       0.28333333       0.08333333       0.01666667 </v>
   <v>       0.31666667       0.08333333       0.01666667 </v>
   <v>       0.35000000       0.08333333       0.01666667 </v>
   <v>       0.38333333       0.08333333       0.01666667 </v>
   <v>       0.41666667       0.08333333       0.01666667 </v>
   <v>       0.45000000       0.08333333       0.01666667 </v>
   <v>       0.48333333       0.08333333       0.01666667 </v>
   <v>       0.11666667       0.11666667       0.01666667 </v>
   <v>       0.15000000       0.11666667       0.01666667 </v>
   <v>       0.18333333       0.11666667       0.01666667 </v>
   <v>       0.21666667       0.11666667       0.01666667 </v>
   <v>       0.25000000       0.11666667       0.01666667 </v>
   <v>       0.28333333       0.11666667       0.01666667 </v>
   <v>       0.31666667       0.11666667       0.01666667 </v>
   <v>       0.35000000       0.11666667       0.01666667 </v>
   <v>       0.38333333       0.11666667       0.01666667 </v>
   <v>       0.41666667       0.11666667       0.01666667 </v>
   <v>       0.45000000       0.11666667       0.01666667 </v>
   <v>       0.48333333       0.11666667       0.01666667 </v>
   <v>       0.15000000       0.15000000       0.01666667 </v>
   <v>       0.18333333       0.15000000       0.01666667 </v>
   <v>       0.21666667       0.15000000       0.01666667 </v>
   <v>       0.25000000       0.15000000       0.01666667 </v>
   <v>       0.28333333       0.15000000       0.01666667 </v>
   <v>       0.31666667       0.15000000       0.01666667 </v>
   <v>       0.35000000       0.15000000       0.01666667 </v>
   <v>       0.38333333       0.15000000       0.01666667 </v>
   <v>       0.41666667       0.15000000       0.01666667 </v>
   <v>       0.45000000       0.15000000       0.01666667 </v>
   <v>       0.48333333       0.15000000       0.01666667 </v>
   <v>       0.18333333       0.18333333       0.01666667 </v>
   <v>       0.21666667       0.18333333       0.01666667 </v>
   <v>       0.25000000       0.18333333       0.01666667 </v>
   <v>       0.28333333       0.18333333       0.01666667 </v>
   <v>       0.31666667       0.18333333       0.01666667 </v>
   <v>       0.35000000       0.18333333       0.01666667 </v>
   <v>       0.38333333       0.18333333       0.01666667 </v>
   <v>       0.41666667       0.18333333       0.01666667 </v>
   <v>       0.45000000       0.18333333       0.01666667 </v>
   <v>       0.48333333       0.18333333       0.01666667 </v>
   <v>       0.21666667       0.21666667       0.01666667 </v>
   <v>       0.25000000       0.21666667       0.01666667 </v>
   <v>       0.28333333       0.21666667       0.01666667 </v>
   <v>       0.31666667       0.21666667       0.01666667 </v>
   <v>       0.35000000       0.21666667       0.01666667 </v>
   <v>       0.38333333       0.21666667       0.01666667 </v>
   <v>       0.41666667       0.21666667       0.01666667 </v>
   <v>       0.45000000       0.21666667       0.01666667 </v>
   <v>       0.48333333       0.21666667       0.01666667 </v>
   <v>       0.25000000       0.25000000       0.01666667 </v>
   <v>       0.28333333       0.25000000       0.01666667 </v>
   <v>       0.31666667       0.25000000       0.01666667 </v>
   <v>       0.35000000       0.25000000       0.01666667 </v>
   <v>       0.38333333       0.25000000       0.01666667 </v>
   <v>       0.41666667       0.25000000       0.01666667 </v>
   <v>       0.45000000       0.25000000       0.01666667 </v>
   <v>       0.48333333       0.25000000       0.01666667 </v>
   <v>       0.28333333       0.28333333       0.01666667 </v>
   <v>       0.31666667       0.28333333       0.01666667 </v>
   <v>       0.35000000       0.28333333       0.01666667 </v>
   <v>       0.38333333       0.28333333       0.01666667 </v>
   <v>       0.41666667       0.28333333       0.01666667 </v>
   <v>       0.45000000       0.28333333       0.01666667 </v>
   <v>       0.48333333       0.28333333       0.01666667 </v>
   <v>       0.31666667       0.31666667       0.01666667 </v>
   <v>       0.35000000       0.31666667       0.01666667 </v>
   <v>       0.38333333       0.31666667       0.01666667 </v>
   <v>       0.41666667       0.31666667       0.01666667 </v>
   <v>       0.45000000       0.31666667       0.01666667 </v>
   <v>       0.48333333       0.31666667       0.01666667 </v>
   <v>       0.35000000       0.35000000       0.01666667 </v>
   <v>       0.38333333       0.35000000       0.01666667 </v>
   <v>       0.41666667       0.35000000       0.01666667 </v>
   <v>       0.45000000       0.35000000       0.01666667 </v>
   <v>       0.48333333       0.35000000       0.01666667 </v>
   <v>       0.38333333       0.38333333       0.01666667 </v>
   <v>       0.41666667       0.38333333       0.01666667 </v>
   <v>       0.45000000       0.38333333       0.01666667 </v>
   <v>       0.48333333       0.38333333       0.01666667 </v>
   <v>       0.41666667       0.41666667       0.01666667 </v>
   <v>       0.45000000       0.41666667       0.01666667 </v>
   <v>       0.48333333       0.41666667       0.01666667 </v>
   <v>       0.45000000       0.45000000       0.01666667 </v>
   <v>       0.48333333       0.45000000       0.01666667 </v>
   <v>       0.48333333       0.48333333       0.01666667 </v>
   <v>       0.05000000       0.05000000       0.05000000 </v>
   <v>       0.08333333       0.05000000       0.05000000 </v>
   <v>       0.11666667       0.05000000       0.05000000 </v>
   <v>       0.15000000       0.05000000       0.05000000 </v>
   <v>       0.18333333       0.05000000       0.05000000 </v>
   <v>       0.21666667       0.05000000       0.05000000 </v>
   <v>       0.25000000       0.05000000       0.05000000 </v>
   <v>       0.28333333       0.05000000       0.05000000 </v>
   <v>       0.31666667       0.05000000       0.05000000 </v>
   <v>       0.35000000       0.05000000       0.05000000 </v>
   <v>       0.38333333       0.05000000       0.05000000 </v>
   <v>       0.41666667       0.05000000       0.05000000 </v>
   <v>       0.45000000       0.05000000       0.05000000 </v>
   <v>       0.48333333       0.05000000       0.05000000 </v>
   <v>       0.08333333       0.08333333       0.05000000 </v>
   <v>       0.11666667       0.08333333       0.05000000 </v>
   <v>       0.15000000       0.08333333       0.05000000 </v>
   <v>       0.18333333       0.08333333       0.05000000 </v>
   <v>       0.21666667       0.08333333       0.05000000 </v>
   <v>       0.25000000       0.08333333       0.05000000 </v>
   <v>       0.28333333       0.08333333       0.05000000 </v>
   <v>       0.31666667       0.08333333       0.05000000 </v>
   <v>       0.35000000       0.08333333       0.05000000 </v>
   <v>       0.38333333       0.08333333       0.05000000 </v>
   <v>       0.41666667       0.08333333       0.05000000 </v>
   <v>       0.45000000       0.08333333       0.05000000 </v>
   <v>       0.48333333       0.08333333       0.05000000 </v>
   <v>       0.11666667       0.11666667       0.05000000 </v>
   <v>       0.15000000       0.11666667       0.05000000 </v>
   <v>       0.18333333       0.11666667       0.05000000 </v>
   <v>       0.21666667       0.11666667       0.05000000 </v>
   <v>       0.25000000       0.11666667       0.05000000 </v>
   <v>       0.28333333       0.11666667       0.05000000 </v>
   <v>       0.31666667       0.11666667       0.05000000 </v>
   <v>       0.35000000       0.11666667       0.05000000 </v>
   <v>       0.38333333       0.11666667       0.05000000 </v>
   <v>       0.41666667       0.11666667       0.05000000 </v>
   <v>       0.45000000       0.11666667       0.05000000 </v>
   <v>       0.48333333       0.11666667       0.05000000 </v>
   <v>       0.15000000       0.15000000       0.05000000 </v>
   <v>       0.18333333       0.15000000       0.05000000 </v>
   <v>       0.21666667       0.15000000       0.05000000 </v>
   <v>       0.25000000       0.15000000       0.05000000 </v>
   <v>       0.28333333       0.15000000       0.05000000 </v>
   <v>       0.31666667       0.15000000       0.05000000 </v>
   <v>       0.35000000       0.15000000       0.05000000 </v>
   <v>       0.38333333       0.15000000       0.05000000 </v>
   <v>       0.41666667       0.15000000       0.05000000 </v>
   <v>       0.45000000       0.15000000       0.05000000 </v>
   <v>       0.48333333       0.15000000       0.05000000 </v>
   <v>       0.18333333       0.18333333       0.05000000 </v>
   <v>       0.21666667       0.18333333       0.05000000 </v>
   <v>       0.25000000       0.18333333       0.05000000 </v>
   <v>       0.28333333       0.18333333       0.05000000 </v>
   <v>       0.31666667       0.18333333       0.05000000 </v>
   <v>       0.35000000       0.18333333       0.05000000 </v>
   <v>       0.38333333       0.18333333       0.05000000 </v>
   <v>       0.41666667       0.18333333       0.05000000 </v>
   <v>       0.45000000       0.18333333       0.05000000 </v>
   <v>       0.48333333       0.18333333       0.05000000 </v>
   <v>       0.21666667       0.21666667       0.05000000 </v>
   <v>       0.25000000       0.21666667       0.05000000 </v>
   <v>       0.28333333       0.21666667       0.05000000 </v>
   <v>       0.31666667       0.21666667       0.05000000 </v>
   <v>       0.35000000       0.21666667       0.05000000 </v>
   <v>       0.38333333       0.21666667       0.05000000 </v>
   <v>       0.41666667       0.21666667       0.05000000 </v>
   <v>       0.45000000       0.21666667       0.05000000 </v>
   <v>       0.48333333       0.21666667       0.05000000 </v>
   <v>       0.25000000       0.25000000       0.05000000 </v>
   <v>       0.28333333       0.25000000       0.05000000 </v>
   <v>       0.31666667       0.25000000       0.05000000 </v>
   <v>       0.35000000       0.25000000       0.05000000 </v>
   <v>       0.38333333       0.25000000       0.05000000 </v>
   <v>       0.41666667       0.25000000       0.05000000 </v>
   <v>       0.45000000       0.25000000       0.05000000 </v>
   <v>       0.48333333       0.25000000       0.05000000 </v>
   <v>       0.28333333       0.28333333       0.05000000 </v>
   <v>       0.31666667       0.28333333       0.05000000 </v>
   <v>       0.35000000       0.28333333       0.05000000 </v>
   <v>       0.38333333       0.28333333       0.05000000 </v>
   <v>       0.41666667       0.28333333       0.05000000 </v>
   <v>       0.45000000       0.28333333       0.05000000 </v>
   <v>       0.48333333       0.28333333       0.05000000 </v>
   <v>       0.31666667       0.31666667       0.05000000 </v>
   <v>       0.35000000       0.31666667       0.05000000 </v>
   <v>       0.38333333       0.31666667       0.05000000 </v>
   <v>       0.41666667       0.31666667       0.05000000 </v>
   <v>       0.45000000       0.31666667       0.05000000 </v>
   <v>       0.48333333       0.31666667       0.05000000 </v>
   <v>       0.35000000       0.35000000       0.05000000 </v>
   <v>       0.38333333       0.35000000       0.05000000 </v>
   <v>       0.41666667       0.35000000       0.05000000 </v>
   <v>       0.45000000       0.35000000       0.05000000 </v>
   <v>       0.48333333       0.35000000       0.05000000 </v>
   <v>       0.38333333       0.38333333       0.05000000 </v>
   <v>       0.41666667       0.38333333       0.05000000 </v>
   <v>       0.45000000       0.38333333       0.05000000 </v>
   <v>       0.48333333       0.38333333       0.05000000 </v>
   <v>       0.41666667       0.41666667       0.05000000 </v>
   <v>       0.45000000       0.41666667       0.05000000 </v>
   <v>       0.48333333       0.41666667       0.05000000 </v>
   <v>       0.45000000       0.45000000       0.05000000 </v>
   <v>       0.48333333       0.45000000       0.05000000 </v>
   <v>       0.48333333       0.48333333       0.05000000 </v>
   <v>       0.08333333       0.08333333       0.08333333 </v>
   <v>       0.11666667       0.08333333       0.08333333 </v>
   <v>       0.15000000       0.08333333       0.08333333 </v>
   <v>       0.18333333       0.08333333       0.08333333 </v>
   <v>       0.21666667       0.08333333       0.08333333 </v>
   <v>       0.25000000       0.08333333       0.08333333 </v>
   <v>       0.28333333       0.08333333       0.08333333 </v>
   <v>       0.31666667       0.08333333       0.08333333 </v>
   <v>       0.35000000       0.08333333       0.08333333 </v>
   <v>       0.38333333       0.08333333       0.08333333 </v>
   <v>       0.41666667       0.08333333       0.08333333 </v>
   <v>       0.45000000       0.08333333       0.08333333 </v>
   <v>       0.48333333       0.08333333       0.08333333 </v>
   <v>       0.11666667       0.11666667       0.08333333 </v>
   <v>       0.15000000       0.11666667       0.08333333 </v>
   <v>       0.18333333       0.11666667       0.08333333 </v>
   <v>       0.21666667       0.11666667       0.08333333 </v>
   <v>       0.25000000       0.11666667       0.08333333 </v>
   <v>       0.28333333       0.11666667       0.08333333 </v>
   <v>       0.31666667       0.11666667       0.08333333 </v>
   <v>       0.35000000       0.11666667       0.08333333 </v>
   <v>       0.38333333       0.11666667       0.08333333 </v>
   <v>       0.41666667       0.11666667       0.08333333 </v>
   <v>       0.45000000       0.11666667       0.08333333 </v>
   <v>       0.48333333       0.11666667       0.08333333 </v>
   <v>       0.15000000       0.15000000       0.08333333 </v>
   <v>       0.18333333       0.15000000       0.08333333 </v>
   <v>       0.21666667       0.15000000       0.08333333 </v>
   <v>       0.25000000       0.15000000       0.08333333 </v>
   <v>       0.28333333       0.15000000       0.08333333 </v>
   <v>       0.31666667       0.15000000       0.08333333 </v>
   <v>       0.35000000       0.15000000       0.08333333 </v>
   <v>       0.38333333       0.15000000       0.08333333 </v>
   <v>       0.41666667       0.15000000       0.08333333 </v>
   <v>       0.45000000       0.15000000       0.08333333 </v>
   <v>       0.48333333       0.15000000       0.08333333 </v>
   <v>       0.18333333       0.18333333       0.08333333 </v>
   <v>       0.21666667       0.18333333       0.08333333 </v>
   <v>       0.25000000       0.18333333       0.08333333 </v>
   <v>       0.28333333       0.18333333       0.08333333 </v>
   <v>       0.31666667       0.18333333       0.08333333 </v>
   <v>       0.35000000       0.18333333       0.08333333 </v>
   <v>       0.38333333       0.18333333       0.08333333 </v>
   <v>       0.41666667       0.18333333       0.08333333 </v>
   <v>       0.45000000       0.18333333       0.08333333 </v>
   <v>       0.48333333       0.18333333       0.08333333 </v>
   <v>       0.21666667       0.21666667       0.08333333 </v>
   <v>       0.25000000       0.21666667       0.08333333 </v>
   <v>       0.28333333       0.21666667       0.08333333 </v>
   <v>       0.31666667       0.21666667       0.08333333 </v>
   <v>       0.35000000       0.21666667       0.08333333 </v>
   <v>       0.38333333       0.21666667       0.08333333 </v>
   <v>       0.41666667       0.21666667       0.08333333 </v>
   <v>       0.45000000       0.21666667       0.08333333 </v>
   <v>       0.48333333       0.21666667       0.08333333 </v>
   <v>       0.25000000       0.25000000       0.08333333 </v>
   <v>       0.28333333       0.25000000       0.08333333 </v>
   <v>       0.31666667       0.25000000       0.08333333 </v>
   <v>       0.35000000       0.25000000       0.08333333 </v>
   <v>       0.38333333       0.25000000       0.08333333 </v>
   <v>       0.41666667       0.25000000       0.08333333 </v>
   <v>       0.45000000       0.25000000       0.08333333 </v>
   <v>       0.48333333       0.25000000       0.08333333 </v>
   <v>       0.28333333       0.28333333       0.08333333 </v>
   <v>       0.31666667       0.28333333       0.08333333 </v>
   <v>       0.35000000       0.28333333       0.08333333 </v>
   <v>       0.38333333       0.28333333       0.08333333 </v>
   <v>       0.41666667       0.28333333       0.08333333 </v>
   <v>       0.45000000       0.28333333       0.08333333 </v>
   <v>       0.48333333       0.28333333       0.08333333 </v>
   <v>       0.31666667       0.31666667       0.08333333 </v>
   <v>       0.35000000       0.31666667       0.08333333 </v>
   <v>       0.38333333       0.31666667       0.08333333 </v>
   <v>       0.41666667       0.31666667       0.08333333 </v>
   <v>       0.45000000       0.31666667       0.08333333 </v>
   <v>       0.48333333       0.31666667       0.08333333 </v>
   <v>       0.35000000       0.35000000       0.08333333 </v>
   <v>       0.38333333       0.35000000       0.08333333 </v>
   <v>       0.41666667       0.35000000       0.08333333 </v>
   <v>       0.45000000       0.35000000       0.08333333 </v>
   <v>       0.48333333       0.35000000       0.08333333 </v>
   <v>       0.38333333       0.38333333       0.08333333 </v>
   <v>       0.41666667       0.38333333       0.08333333 </v>
   <v>       0.45000000       0.38333333       0.08333333 </v>
   <v>       0.48333333       0.38333333       0.08333333 </v>
   <v>       0.41666667       0.41666667       0.08333333 </v>
   <v>       0.45000000       0.41666667       0.08333333 </v>
   <v>       0.48333333       0.41666667       0.08333333 </v>
   <v>       0.45000000       0.45000000       0.08333333 </v>
   <v>       0.48333333       0.45000000       0.08333333 </v>
   <v>       0.48333333       0.48333333       0.08333333 </v>
   <v>       0.11666667       0.11666667       0.11666667 </v>
   <v>       0.15000000       0.11666667       0.11666667 </v>
   <v>       0.18333333       0.11666667       0.11666667 </v>
   <v>       0.21666667       0.11666667       0.11666667 </v>
   <v>       0.25000000       0.11666667       0.11666667 </v>
   <v>       0.28333333       0.11666667       0.11666667 </v>
   <v>       0.31666667       0.11666667       0.11666667 </v>
   <v>       0.35000000       0.11666667       0.11666667 </v>
   <v>       0.38333333       0.11666667       0.11666667 </v>
   <v>       0.41666667       0.11666667       0.11666667 </v>
   <v>       0.45000000       0.11666667       0.11666667 </v>
   <v>       0.48333333       0.11666667       0.11666667 </v>
   <v>       0.15000000       0.15000000       0.11666667 </v>
   <v>       0.18333333       0.15000000       0.11666667 </v>
   <v>       0.21666667       0.15000000       0.11666667 </v>
   <v>       0.25000000       0.15000000       0.11666667 </v>
   <v>       0.28333333       0.15000000       0.11666667 </v>
   <v>       0.31666667       0.15000000       0.11666667 </v>
   <v>       0.35000000       0.15000000       0.11666667 </v>
   <v>       0.38333333       0.15000000       0.11666667 </v>
   <v>       0.41666667       0.15000000       0.11666667 </v>
   <v>       0.45000000       0.15000000       0.11666667 </v>
   <v>       0.48333333       0.15000000       0.11666667 </v>
   <v>       0.18333333       0.18333333       0.11666667 </v>
   <v>       0.21666667       0.18333333       0.11666667 </v>
   <v>       0.25000000       0.18333333       0.11666667 </v>
   <v>       0.28333333       0.18333333       0.11666667 </v>
   <v>       0.31666667       0.18333333       0.11666667 </v>
   <v>       0.35000000       0.18333333       0.11666667 </v>
   <v>       0.38333333       0.18333333       0.11666667 </v>
   <v>       0.41666667       0.18333333       0.11666667 </v>
   <v>       0.45000000       0.18333333       0.11666667 </v>
   <v>       0.48333333       0.18333333       0.11666667 </v>
   <v>       0.21666667       0.21666667       0.11666667 </v>
   <v>       0.25000000       0.21666667       0.11666667 </v>
   <v>       0.28333333       0.21666667       0.11666667 </v>
   <v>       0.31666667       0.21666667       0.11666667 </v>
   <v>       0.35000000       0.21666667       0.11666667 </v>
   <v>       0.38333333       0.21666667       0.11666667 </v>
   <v>       0.41666667       0.21666667       0.11666667 </v>
   <v>       0.45000000       0.21666667       0.11666667 </v>
   <v>       0.48333333       0.21666667       0.11666667 </v>
   <v>       0.25000000       0.25000000       0.11666667 </v>
   <v>       0.28333333       0.25000000       0.11666667 </v>
   <v>       0.31666667       0.25000000       0.11666667 </v>
   <v>       0.35000000       0.25000000       0.11666667 </v>
   <v>       0.38333333       0.25000000       0.11666667 </v>
   <v>       0.41666667       0.25000000       0.11666667 </v>
   <v>       0.45000000       0.25000000       0.11666667 </v>
   <v>       0.48333333       0.25000000       0.11666667 </v>
   <v>       0.28333333       0.28333333       0.11666667 </v>
   <v>       0.31666667       0.28333333       0.11666667 </v>
   <v>       0.35000000       0.28333333       0.11666667 </v>
   <v>       0.38333333       0.28333333       0.11666667 </v>
   <v>       0.41666667       0.28333333       0.11666667 </v>
   <v>       0.45000000       0.28333333       0.11666667 </v>
   <v>       0.48333333       0.28333333       0.11666667 </v>
   <v>       0.31666667       0.31666667       0.11666667 </v>
   <v>       0.35000000       0.31666667       0.11666667 </v>
   <v>       0.38333333       0.31666667       0.11666667 </v>
   <v>       0.41666667       0.31666667       0.11666667 </v>
   <v>       0.45000000       0.31666667       0.11666667 </v>
   <v>       0.48333333       0.31666667       0.11666667 </v>
   <v>       0.35000000       0.35000000       0.11666667 </v>
   <v>       0.38333333       0.35000000       0.11666667 </v>
   <v>       0.41666667       0.35000000       0.11666667 </v>
   <v>       0.45000000       0.35000000       0.11666667 </v>
   <v>       0.48333333       0.35000000       0.11666667 </v>
   <v>       0.38333333       0.38333333       0.11666667 </v>
   <v>       0.41666667       0.38333333       0.11666667 </v>
   <v>       0.45000000       0.38333333       0.11666667 </v>
   <v>       0.48333333       0.38333333       0.11666667 </v>
   <v>       0.41666667       0.41666667       0.11666667 </v>
   <v>       0.45000000       0.41666667       0.11666667 </v>
   <v>       0.48333333       0.41666667       0.11666667 </v>
   <v>       0.45000000       0.45000000       0.11666667 </v>
   <v>       0.48333333       0.45000000       0.11666667 </v>
   <v>       0.48333333       0.48333333       0.11666667 </v>
   <v>       0.15000000       0.15000000       0.15000000 </v>
   <v>       0.18333333       0.15000000       0.15000000 </v>
   <v>       0.21666667       0.15000000       0.15000000 </v>
   <v>       0.25000000       0.15000000       0.15000000 </v>
   <v>       0.28333333       0.15000000       0.15000000 </v>
   <v>       0.31666667       0.15000000       0.15000000 </v>
   <v>       0.35000000       0.15000000       0.15000000 </v>
   <v>       0.38333333       0.15000000       0.15000000 </v>
   <v>       0.41666667       0.15000000       0.15000000 </v>
   <v>       0.45000000       0.15000000       0.15000000 </v>
   <v>       0.48333333       0.15000000       0.15000000 </v>
   <v>       0.18333333       0.18333333       0.15000000 </v>
   <v>       0.21666667       0.18333333       0.15000000 </v>
   <v>       0.25000000       0.18333333       0.15000000 </v>
   <v>       0.28333333       0.18333333       0.15000000 </v>
   <v>       0.31666667       0.18333333       0.15000000 </v>
   <v>       0.35000000       0.18333333       0.15000000 </v>
   <v>       0.38333333       0.18333333       0.15000000 </v>
   <v>       0.41666667       0.18333333       0.15000000 </v>
   <v>       0.45000000       0.18333333       0.15000000 </v>
   <v>       0.48333333       0.18333333       0.15000000 </v>
   <v>       0.21666667       0.21666667       0.15000000 </v>
   <v>       0.25000000       0.21666667       0.15000000 </v>
   <v>       0.28333333       0.21666667       0.15000000 </v>
   <v>       0.31666667       0.21666667       0.15000000 </v>
   <v>       0.35000000       0.21666667       0.15000000 </v>
   <v>       0.38333333       0.21666667       0.15000000 </v>
   <v>       0.41666667       0.21666667       0.15000000 </v>
   <v>       0.45000000       0.21666667       0.15000000 </v>
   <v>       0.48333333       0.21666667       0.15000000 </v>
   <v>       0.25000000       0.25000000       0.15000000 </v>
   <v>       0.28333333       0.25000000       0.15000000 </v>
   <v>       0.31666667       0.25000000       0.15000000 </v>
   <v>       0.35000000       0.25000000       0.15000000 </v>
   <v>       0.38333333       0.25000000       0.15000000 </v>
   <v>       0.41666667       0.25000000       0.15000000 </v>
   <v>       0.45000000       0.25000000       0.15000000 </v>
   <v>       0.48333333       0.25000000       0.15000000 </v>
   <v>       0.28333333       0.28333333       0.15000000 </v>
   <v>       0.31666667       0.28333333       0.15000000 </v>
   <v>       0.35000000       0.28333333       0.15000000 </v>
   <v>       0.38333333       0.28333333       0.15000000 </v>
   <v>       0.41666667       0.28333333       0.15000000 </v>
   <v>       0.45000000       0.28333333       0.15000000 </v>
   <v>       0.48333333       0.28333333       0.15000000 </v>
   <v>       0.31666667       0.31666667       0.15000000 </v>
   <v>       0.35000000       0.31666667       0.15000000 </v>
   <v>       0.38333333       0.31666667       0.15000000 </v>
   <v>       0.41666667       0.31666667       0.15000000 </v>
   <v>       0.45000000       0.31666667       0.15000000 </v>
   <v>       0.48333333       0.31666667       0.15000000 </v>
   <v>       0.35000000       0.35000000       0.15000000 </v>
   <v>       0.38333333       0.35000000       0.15000000 </v>
   <v>       0.41666667       0.35000000       0.15000000 </v>
   <v>       0.45000000       0.35000000       0.15000000 </v>
   <v>       0.48333333       0.35000000       0.15000000 </v>
   <v>       0.38333333       0.38333333       0.15000000 </v>
   <v>       0.41666667       0.38333333       0.15000000 </v>
   <v>       0.45000000       0.38333333       0.15000000 </v>
   <v>       0.48333333       0.38333333       0.15000000 </v>
   <v>       0.41666667       0.41666667       0.15000000 </v>
   <v>       0.45000000       0.41666667       0.15000000 </v>
   <v>       0.48333333       0.41666667       0.15000000 </v>
   <v>       0.45000000       0.45000000       0.15000000 </v>
   <v>       0.48333333       0.45000000       0.15000000 </v>
   <v>       0.48333333       0.48333333       0.15000000 </v>
   <v>       0.18333333       0.18333333       0.18333333 </v>
   <v>       0.21666667       0.18333333       0.18333333 </v>
   <v>       0.25000000       0.18333333       0.18333333 </v>
   <v>       0.28333333       0.18333333       0.18333333 </v>
   <v>       0.31666667       0.18333333       0.18333333 </v>
   <v>       0.35000000       0.18333333       0.18333333 </v>
   <v>       0.38333333       0.18333333       0.18333333 </v>
   <v>       0.41666667       0.18333333       0.18333333 </v>
   <v>       0.45000000       0.18333333       0.18333333 </v>
   <v>       0.48333333       0.18333333       0.18333333 </v>
   <v>       0.21666667       0.21666667       0.18333333 </v>
   <v>       0.25000000       0.21666667       0.18333333 </v>
   <v>       0.28333333       0.21666667       0.18333333 </v>
   <v>       0.31666667       0.21666667       0.18333333 </v>
   <v>       0.35000000       0.21666667       0.18333333 </v>
   <v>       0.38333333       0.21666667       0.18333333 </v>
   <v>       0.41666667       0.21666667       0.18333333 </v>
   <v>       0.45000000       0.21666667       0.18333333 </v>
   <v>       0.48333333       0.21666667       0.18333333 </v>
   <v>       0.25000000       0.25000000       0.18333333 </v>
   <v>       0.28333333       0.25000000       0.18333333 </v>
   <v>       0.31666667       0.25000000       0.18333333 </v>
   <v>       0.35000000       0.25000000       0.18333333 </v>
   <v>       0.38333333       0.25000000       0.18333333 </v>
   <v>       0.41666667       0.25000000       0.18333333 </v>
   <v>       0.45000000       0.25000000       0.18333333 </v>
   <v>       0.48333333       0.25000000       0.18333333 </v>
   <v>       0.28333333       0.28333333       0.18333333 </v>
   <v>       0.31666667       0.28333333       0.18333333 </v>
   <v>       0.35000000       0.28333333       0.18333333 </v>
   <v>       0.38333333       0.28333333       0.18333333 </v>
   <v>       0.41666667       0.28333333       0.18333333 </v>
   <v>       0.45000000       0.28333333       0.18333333 </v>
   <v>       0.48333333       0.28333333       0.18333333 </v>
   <v>       0.31666667       0.31666667       0.18333333 </v>
   <v>       0.35000000       0.31666667       0.18333333 </v>
   <v>       0.38333333       0.31666667       0.18333333 </v>
   <v>       0.41666667       0.31666667       0.18333333 </v>
   <v>       0.45000000       0.31666667       0.18333333 </v>
   <v>       0.48333333       0.31666667       0.18333333 </v>
   <v>       0.35000000       0.35000000       0.18333333 </v>
   <v>       0.38333333       0.35000000       0.18333333 </v>
   <v>       0.41666667       0.35000000       0.18333333 </v>
   <v>       0.45000000       0.35000000       0.18333333 </v>
   <v>       0.48333333       0.35000000       0.18333333 </v>
   <v>       0.38333333       0.38333333       0.18333333 </v>
   <v>       0.41666667       0.38333333       0.18333333 </v>
   <v>       0.45000000       0.38333333       0.18333333 </v>
   <v>       0.48333333       0.38333333       0.18333333 </v>
   <v>       0.41666667       0.41666667       0.18333333 </v>
   <v>       0.45000000       0.41666667       0.18333333 </v>
   <v>       0.48333333       0.41666667       0.18333333 </v>
   <v>       0.45000000       0.45000000       0.18333333 </v>
   <v>       0.48333333       0.45000000       0.18333333 </v>
   <v>       0.48333333       0.48333333       0.18333333 </v>
   <v>       0.21666667       0.21666667       0.21666667 </v>
   <v>       0.25000000       0.21666667       0.21666667 </v>
   <v>       0.28333333       0.21666667       0.21666667 </v>
   <v>       0.31666667       0.21666667       0.21666667 </v>
   <v>       0.35000000       0.21666667       0.21666667 </v>
   <v>       0.38333333       0.21666667       0.21666667 </v>
   <v>       0.41666667       0.21666667       0.21666667 </v>
   <v>       0.45000000       0.21666667       0.21666667 </v>
   <v>       0.48333333       0.21666667       0.21666667 </v>
   <v>       0.25000000       0.25000000       0.21666667 </v>
   <v>       0.28333333       0.25000000       0.21666667 </v>
   <v>       0.31666667       0.25000000       0.21666667 </v>
   <v>       0.35000000       0.25000000       0.21666667 </v>
   <v>       0.38333333       0.25000000       0.21666667 </v>
   <v>       0.41666667       0.25000000       0.21666667 </v>
   <v>       0.45000000       0.25000000       0.21666667 </v>
   <v>       0.48333333       0.25000000       0.21666667 </v>
   <v>       0.28333333       0.28333333       0.21666667 </v>
   <v>       0.31666667       0.28333333       0.21666667 </v>
   <v>       0.35000000       0.28333333       0.21666667 </v>
   <v>       0.38333333       0.28333333       0.21666667 </v>
   <v>       0.41666667       0.28333333       0.21666667 </v>
   <v>       0.45000000       0.28333333       0.21666667 </v>
   <v>       0.48333333       0.28333333       0.21666667 </v>
   <v>       0.31666667       0.31666667       0.21666667 </v>
   <v>       0.35000000       0.31666667       0.21666667 </v>
   <v>       0.38333333       0.31666667       0.21666667 </v>
   <v>       0.41666667       0.31666667       0.21666667 </v>
   <v>       0.45000000       0.31666667       0.21666667 </v>
   <v>       0.48333333       0.31666667       0.21666667 </v>
   <v>       0.35000000       0.35000000       0.21666667 </v>
   <v>       0.38333333       0.35000000       0.21666667 </v>
   <v>       0.41666667       0.35000000       0.21666667 </v>
   <v>       0.45000000       0.35000000       0.21666667 </v>
   <v>       0.48333333       0.35000000       0.21666667 </v>
   <v>       0.38333333       0.38333333       0.21666667 </v>
   <v>       0.41666667       0.38333333       0.21666667 </v>
   <v>       0.45000000       0.38333333       0.21666667 </v>
   <v>       0.48333333       0.38333333       0.21666667 </v>
   <v>       0.41666667       0.41666667       0.21666667 </v>
   <v>       0.45000000       0.41666667       0.21666667 </v>
   <v>       0.48333333       0.41666667       0.21666667 </v>
   <v>       0.45000000       0.45000000       0.21666667 </v>
   <v>       0.48333333       0.45000000       0.21666667 </v>
   <v>       0.48333333       0.48333333       0.21666667 </v>
   <v>       0.25000000       0.25000000       0.25000000 </v>
   <v>       0.28333333       0.25000000       0.25000000 </v>
   <v>       0.31666667       0.25000000       0.25000000 </v>
   <v>       0.35000000       0.25000000       0.25000000 </v>
   <v>       0.38333333       0.25000000       0.25000000 </v>
   <v>       0.41666667       0.25000000       0.25000000 </v>
   <v>       0.45000000       0.25000000       0.25000000 </v>
   <v>       0.48333333       0.25000000       0.25000000 </v>
   <v>       0.28333333       0.28333333       0.25000000 </v>
   <v>       0.31666667       0.28333333       0.25000000 </v>
   <v>       0.35000000       0.28333333       0.25000000 </v>
   <v>       0.38333333       0.28333333       0.25000000 </v>
   <v>       0.41666667       0.28333333       0.25000000 </v>
   <v>       0.45000000       0.28333333       0.25000000 </v>
   <v>       0.48333333       0.28333333       0.25000000 </v>
   <v>       0.31666667       0.31666667       0.25000000 </v>
   <v>       0.35000000       0.31666667       0.25000000 </v>
   <v>       0.38333333       0.31666667       0.25000000 </v>
   <v>       0.41666667       0.31666667       0.25000000 </v>
   <v>       0.45000000       0.31666667       0.25000000 </v>
   <v>       0.48333333       0.31666667       0.25000000 </v>
   <v>       0.35000000       0.35000000       0.25000000 </v>
   <v>       0.38333333       0.35000000       0.25000000 </v>
   <v>       0.41666667       0.35000000       0.25000000 </v>
   <v>       0.45000000       0.35000000       0.25000000 </v>
   <v>       0.48333333       0.35000000       0.25000000 </v>
   <v>       0.38333333       0.38333333       0.25000000 </v>
   <v>       0.41666667       0.38333333       0.25000000 </v>
   <v>       0.45000000       0.38333333       0.25000000 </v>
   <v>       0.48333333       0.38333333       0.25000000 </v>
   <v>       0.41666667       0.41666667       0.25000000 </v>
   <v>       0.45000000       0.41666667       0.25000000 </v>
   <v>       0.48333333       0.41666667       0.25000000 </v>
   <v>       0.45000000       0.45000000       0.25000000 </v>
   <v>       0.48333333       0.45000000       0.25000000 </v>
   <v>       0.48333333       0.48333333       0.25000000 </v>
   <v>       0.28333333       0.28333333       0.28333333 </v>
   <v>       0.31666667       0.28333333       0.28333333 </v>
   <v>       0.35000000       0.28333333       0.28333333 </v>
   <v>       0.38333333       0.28333333       0.28333333 </v>
   <v>       0.41666667       0.28333333       0.28333333 </v>
   <v>       0.45000000       0.28333333       0.28333333 </v>
   <v>       0.48333333       0.28333333       0.28333333 </v>
   <v>       0.31666667       0.31666667       0.28333333 </v>
   <v>       0.35000000       0.31666667       0.28333333 </v>
   <v>       0.38333333       0.31666667       0.28333333 </v>
   <v>       0.41666667       0.31666667       0.28333333 </v>
   <v>       0.45000000       0.31666667       0.28333333 </v>
   <v>       0.48333333       0.31666667       0.28333333 </v>
   <v>       0.35000000       0.35000000       0.28333333 </v>
   <v>       0.38333333       0.35000000       0.28333333 </v>
   <v>       0.41666667       0.35000000       0.28333333 </v>
   <v>       0.45000000       0.35000000       0.28333333 </v>
   <v>       0.48333333       0.35000000       0.28333333 </v>
   <v>       0.38333333       0.38333333       0.28333333 </v>
   <v>       0.41666667       0.38333333       0.28333333 </v>
   <v>       0.45000000       0.38333333       0.28333333 </v>
   <v>       0.48333333       0.38333333       0.28333333 </v>
   <v>       0.41666667       0.41666667       0.28333333 </v>
   <v>       0.45000000       0.41666667       0.28333333 </v>
   <v>       0.48333333       0.41666667       0.28333333 </v>
   <v>       0.45000000       0.45000000       0.28333333 </v>
   <v>       0.48333333       0.45000000       0.28333333 </v>
   <v>       0.48333333       0.48333333       0.28333333 </v>
   <v>       0.31666667       0.31666667       0.31666667 </v>
   <v>       0.35000000       0.31666667       0.31666667 </v>
   <v>       0.38333333       0.31666667       0.31666667 </v>
   <v>       0.41666667       0.31666667       0.31666667 </v>
   <v>       0.45000000       0.31666667       0.31666667 </v>
   <v>       0.48333333       0.31666667       0.31666667 </v>
   <v>       0.35000000       0.35000000       0.31666667 </v>
   <v>       0.38333333       0.35000000       0.31666667 </v>
   <v>       0.41666667       0.35000000       0.31666667 </v>
   <v>       0.45000000       0.35000000       0.31666667 </v>
   <v>       0.48333333       0.35000000       0.31666667 </v>
   <v>       0.38333333       0.38333333       0.31666667 </v>
   <v>       0.41666667       0.38333333       0.31666667 </v>
   <v>       0.45000000       0.38333333       0.31666667 </v>
   <v>       0.48333333       0.38333333       0.31666667 </v>
   <v>       0.41666667       0.41666667       0.31666667 </v>
   <v>       0.45000000       0.41666667       0.31666667 </v>
   <v>       0.48333333       0.41666667       0.31666667 </v>
   <v>       0.45000000       0.45000000       0.31666667 </v>
   <v>       0.48333333       0.45000000       0.31666667 </v>
   <v>       0.48333333       0.48333333       0.31666667 </v>
   <v>       0.35000000       0.35000000       0.35000000 </v>
   <v>       0.38333333       0.35000000       0.35000000 </v>
   <v>       0.41666667       0.35000000       0.35000000 </v>
   <v>       0.45000000       0.35000000       0.35000000 </v>
   <v>       0.48333333       0.35000000       0.35000000 </v>
   <v>       0.38333333       0.38333333       0.35000000 </v>
   <v>       0.41666667       0.38333333       0.35000000 </v>
   <v>       0.45000000       0.38333333       0.35000000 </v>
   <v>       0.48333333       0.38333333       0.35000000 </v>
   <v>       0.41666667       0.41666667       0.35000000 </v>
   <v>       0.45000000       0.41666667       0.35000000 </v>
   <v>       0.48333333       0.41666667       0.35000000 </v>
   <v>       0.45000000       0.45000000       0.35000000 </v>
   <v>       0.48333333       0.45000000       0.35000000 </v>
   <v>       0.48333333       0.48333333       0.35000000 </v>
   <v>       0.38333333       0.38333333       0.38333333 </v>
   <v>       0.41666667       0.38333333       0.38333333 </v>
   <v>       0.45000000       0.38333333       0.38333333 </v>
   <v>       0.48333333       0.38333333       0.38333333 </v>
   <v>       0.41666667       0.41666667       0.38333333 </v>
   <v>       0.45000000       0.41666667       0.38333333 </v>
   <v>       0.48333333       0.41666667       0.38333333 </v>
   <v>       0.45000000       0.45000000       0.38333333 </v>
   <v>       0.48333333       0.45000000       0.38333333 </v>
   <v>       0.48333333       0.48333333       0.38333333 </v>
   <v>       0.41666667       0.41666667       0.41666667 </v>
   <v>       0.45000000       0.41666667       0.41666667 </v>
   <v>       0.48333333       0.41666667       0.41666667 </v>
   <v>       0.45000000       0.45000000       0.41666667 </v>
   <v>       0.48333333       0.45000000       0.41666667 </v>
   <v>       0.48333333       0.48333333       0.41666667 </v>
   <v>       0.45000000       0.45000000       0.45000000 </v>
   <v>       0.48333333       0.45000000       0.45000000 </v>
   <v>       0.48333333       0.48333333       0.45000000 </v>
   <v>       0.48333333       0.48333333       0.48333333 </v>
  </varray>
  <varray name="weights" >
   <v>       0.00029630 </v>
   <v>       0.00088889 </v>
   <v>       0.00088889 </v>
   <v>       0.00088889 </v>
   <v>       0.00088889 </v>
   <v>       0.00088889 </v>
   <v>       0.00088889 </v>
   <v>       0.00088889 </v>
   <v>       0.00088889 </v>
   <v>       0.00088889 </v>
   <v>       0.00088889 </v>
   <v>       0.00088889 </v>
   <v>       0.00088889 </v>
   <v>       0.00088889 </v>
   <v>       0.00088889 </v>
   <v>       0.00088889 </v>
   <v>       0.00177778 </v>
   <v>       0.00177778 </v>
   <v>       0.00177778 </v>
   <v>       0.00177778 </v>
   <v>       0.00177778 </v>
   <v>       0.00177778 </v>
   <v>       0.00177778 </v>
   <v>       0.00177778 </v>
   <v>       0.00177778 </v>
   <v>       0.00177778 </v>
   <v>       0.00177778 </v>
   <v>       0.00177778 </v>
   <v>       0.00177778 </v>
   <v>       0.00088889 </v>
   <v>       0.00177778 </v>
   <v>       0.00177778 </v>
   <v>       0.00177778 </v>
   <v>       0.00177778 </v>
   <v>       0.00177778 </v>
   <v>       0.00177778 </v>
   <v>       0.00177778 </v>
   <v>       0.00177778 </v>
   <v>       0.00177778 </v>
   <v>       0.00177778 </v>
   <v>       0.00177778 </v>
   <v>       0.00177778 </v>
   <v>       0.00088889 </v>
   <v>       0.00177778 </v>
   <v>       0.00177778 </v>
   <v>       0.00177778 </v>
   <v>       0.00177778 </v>
   <v>       0.00177778 </v>
   <v>       0.00177778 </v>
   <v>       0.00177778 </v>
   <v>       0.00177778 </v>
   <v>       0.00177778 </v>
   <v>       0.00177778 </v>
   <v>       0.00177778 </v>
   <v>       0.00088889 </v>
   <v>       0.00177778 </v>
   <v>       0.00177778 </v>
   <v>       0.00177778 </v>
   <v>       0.00177778 </v>
   <v>       0.00177778 </v>
   <v>       0.00177778 </v>
   <v>       0.00177778 </v>
   <v>       0.00177778 </v>
   <v>       0.00177778 </v>
   <v>       0.00177778 </v>
   <v>       0.00088889 </v>
   <v>       0.00177778 </v>
   <v>       0.00177778 </v>
   <v>       0.00177778 </v>
   <v>       0.00177778 </v>
   <v>       0.00177778 </v>
   <v>       0.00177778 </v>
   <v>       0.00177778 </v>
   <v>       0.00177778 </v>
   <v>       0.00177778 </v>
   <v>       0.00088889 </v>
   <v>       0.00177778 </v>
   <v>       0.00177778 </v>
   <v>       0.00177778 </v>
   <v>       0.00177778 </v>
   <v>       0.00177778 </v>
   <v>       0.00177778 </v>
   <v>       0.00177778 </v>
   <v>       0.00177778 </v>
   <v>       0.00088889 </v>
   <v>       0.00177778 </v>
   <v>       0.00177778 </v>
   <v>       0.00177778 </v>
   <v>       0.00177778 </v>
   <v>       0.00177778 </v>
   <v>       0.00177778 </v>
   <v>       0.00177778 </v>
   <v>       0.00088889 </v>
   <v>       0.00177778 </v>
   <v>       0.00177778 </v>
   <v>       0.00177778 </v>
   <v>       0.00177778 </v>
   <v>       0.00177778 </v>
   <v>       0.00177778 </v>
   <v>       0.00088889 </v>
   <v>       0.00177778 </v>
   <v>       0.00177778 </v>
   <v>       0.00177778 </v>
   <v>       0.00177778 </v>
   <v>       0.00177778 </v>
   <v>       0.00088889 </v>
   <v>       0.00177778 </v>
   <v>       0.00177778 </v>
   <v>       0.00177778 </v>
   <v>       0.00177778 </v>
   <v>       0.00088889 </v>
   <v>       0.00177778 </v>
   <v>       0.00177778 </v>
   <v>       0.00177778 </v>
   <v>       0.00088889 </v>
   <v>       0.00177778 </v>
   <v>       0.00177778 </v>
   <v>       0.00088889 </v>
   <v>       0.00177778 </v>
   <v>       0.00088889 </v>
   <v>       0.00029630 </v>
   <v>       0.00088889 </v>
   <v>       0.00088889 </v>
   <v>       0.00088889 </v>
   <v>       0.00088889 </v>
   <v>       0.00088889 </v>
   <v>       0.00088889 </v>
   <v>       0.00088889 </v>
   <v>       0.00088889 </v>
   <v>       0.00088889 </v>
   <v>       0.00088889 </v>
   <v>       0.00088889 </v>
   <v>       0.00088889 </v>
   <v>       0.00088889 </v>
   <v>       0.00088889 </v>
   <v>       0.00177778 </v>
   <v>       0.00177778 </v>
   <v>       0.00177778 </v>
   <v>       0.00177778 </v>
   <v>       0.00177778 </v>
   <v>       0.00177778 </v>
   <v>       0.00177778 </v>
   <v>       0.00177778 </v>
   <v>       0.00177778 </v>
   <v>       0.00177778 </v>
   <v>       0.00177778 </v>
   <v>       0.00177778 </v>
   <v>       0.00088889 </v>
   <v>       0.00177778 </v>
   <v>       0.00177778 </v>
   <v>       0.00177778 </v>
   <v>       0.00177778 </v>
   <v>       0.00177778 </v>
   <v>       0.00177778 </v>
   <v>       0.00177778 </v>
   <v>       0.00177778 </v>
   <v>       0.00177778 </v>
   <v>       0.00177778 </v>
   <v>       0.00177778 </v>
   <v>       0.00088889 </v>
   <v>       0.00177778 </v>
   <v>       0.00177778 </v>
   <v>       0.00177778 </v>
   <v>       0.00177778 </v>
   <v>       0.00177778 </v>
   <v>       0.00177778 </v>
   <v>       0.00177778 </v>
   <v>       0.00177778 </v>
   <v>       0.00177778 </v>
   <v>       0.00177778 </v>
   <v>       0.00088889 </v>
   <v>       0.00177778 </v>
   <v>       0.00177778 </v>
   <v>       0.00177778 </v>
   <v>       0.00177778 </v>
   <v>       0.00177778 </v>
   <v>       0.00177778 </v>
   <v>       0.00177778 </v>
   <v>       0.00177778 </v>
   <v>       0.00177778 </v>
   <v>       0.00088889 </v>
   <v>       0.00177778 </v>
   <v>       0.00177778 </v>
   <v>       0.00177778 </v>
   <v>       0.00177778 </v>
   <v>       0.00177778 </v>
   <v>       0.00177778 </v>
   <v>       0.00177778 </v>
   <v>       0.00177778 </v>
   <v>       0.00088889 </v>
   <v>       0.00177778 </v>
   <v>       0.00177778 </v>
   <v>       0.00177778 </v>
   <v>       0.00177778 </v>
   <v>       0.00177778 </v>
   <v>       0.00177778 </v>
   <v>       0.00177778 </v>
   <v>       0.00088889 </v>
   <v>       0.00177778 </v>
   <v>       0.00177778 </v>
   <v>       0.00177778 </v>
   <v>       0.00177778 </v>
   <v>       0.00177778 </v>
   <v>       0.00177778 </v>
   <v>       0.00088889 </v>
   <v>       0.00177778 </v>
   <v>       0.00177778 </v>
   <v>       0.00177778 </v>
   <v>       0.00177778 </v>
   <v>       0.00177778 </v>
   <v>       0.00088889 </v>
   <v>       0.00177778 </v>
   <v>       0.00177778 </v>
   <v>       0.00177778 </v>
   <v>       0.00177778 </v>
   <v>       0.00088889 </v>
   <v>       0.00177778 </v>
   <v>       0.00177778 </v>
   <v>       0.00177778 </v>
   <v>       0.00088889 </v>
   <v>       0.00177778 </v>
   <v>       0.00177778 </v>
   <v>       0.00088889 </v>
   <v>       0.00177778 </v>
   <v>       0.00088889 </v>
   <v>       0.00029630 </v>
   <v>       0.00088889 </v>
   <v>       0.00088889 </v>
   <v>       0.00088889 </v>
   <v>       0.00088889 </v>
   <v>       0.00088889 </v>
   <v>       0.00088889 </v>
   <v>       0.00088889 </v>
   <v>       0.00088889 </v>
   <v>       0.00088889 </v>
   <v>       0.00088889 </v>
   <v>       0.00088889 </v>
   <v>       0.00088889 </v>
   <v>       0.00088889 </v>
   <v>       0.00177778 </v>
   <v>       0.00177778 </v>
   <v>       0.00177778 </v>
   <v>       0.00177778 </v>
   <v>       0.00177778 </v>
   <v>       0.00177778 </v>
   <v>       0.00177778 </v>
   <v>       0.00177778 </v>
   <v>       0.00177778 </v>
   <v>       0.00177778 </v>
   <v>       0.00177778 </v>
   <v>       0.00088889 </v>
   <v>       0.00177778 </v>
   <v>       0.00177778 </v>
   <v>       0.00177778 </v>
   <v>       0.00177778 </v>
   <v>       0.00177778 </v>
   <v>       0.00177778 </v>
   <v>       0.00177778 </v>
   <v>       0.00177778 </v>
   <v>       0.00177778 </v>
   <v>       0.00177778 </v>
   <v>       0.00088889 </v>
   <v>       0.00177778 </v>
   <v>       0.00177778 </v>
   <v>       0.00177778 </v>
   <v>       0.00177778 </v>
   <v>       0.00177778 </v>
   <v>       0.00177778 </v>
   <v>       0.00177778 </v>
   <v>       0.00177778 </v>
   <v>       0.00177778 </v>
   <v>       0.00088889 </v>
   <v>       0.00177778 </v>
   <v>       0.00177778 </v>
   <v>       0.00177778 </v>
   <v>       0.00177778 </v>
   <v>       0.00177778 </v>
   <v>       0.00177778 </v>
   <v>       0.00177778 </v>
   <v>       0.00177778 </v>
   <v>       0.00088889 </v>
   <v>       0.00177778 </v>
   <v>       0.00177778 </v>
   <v>       0.00177778 </v>
   <v>       0.00177778 </v>
   <v>       0.00177778 </v>
   <v>       0.00177778 </v>
   <v>       0.00177778 </v>
   <v>       0.00088889 </v>
   <v>       0.00177778 </v>
   <v>       0.00177778 </v>
   <v>       0.00177778 </v>
   <v>       0.00177778 </v>
   <v>       0.00177778 </v>
   <v>       0.00177778 </v>
   <v>       0.00088889 </v>
   <v>       0.00177778 </v>
   <v>       0.00177778 </v>
   <v>       0.00177778 </v>
   <v>       0.00177778 </v>
   <v>       0.00177778 </v>
   <v>       0.00088889 </v>
   <v>       0.00177778 </v>
   <v>       0.00177778 </v>
   <v>       0.00177778 </v>
   <v>       0.00177778 </v>
   <v>       0.00088889 </v>
   <v>       0.00177778 </v>
   <v>       0.00177778 </v>
   <v>       0.00177778 </v>
   <v>       0.00088889 </v>
   <v>       0.00177778 </v>
   <v>       0.00177778 </v>
   <v>       0.00088889 </v>
   <v>       0.00177778 </v>
   <v>       0.00088889 </v>
   <v>       0.00029630 </v>
   <v>       0.00088889 </v>
   <v>       0.00088889 </v>
   <v>       0.00088889 </v>
   <v>       0.00088889 </v>
   <v>       0.00088889 </v>
   <v>       0.00088889 </v>
   <v>       0.00088889 </v>
   <v>       0.00088889 </v>
   <v>       0.00088889 </v>
   <v>       0.00088889 </v>
   <v>       0.00088889 </v>
   <v>       0.00088889 </v>
   <v>       0.00177778 </v>
   <v>       0.00177778 </v>
   <v>       0.00177778 </v>
   <v>       0.00177778 </v>
   <v>       0.00177778 </v>
   <v>       0.00177778 </v>
   <v>       0.00177778 </v>
   <v>       0.00177778 </v>
   <v>       0.00177778 </v>
   <v>       0.00177778 </v>
   <v>       0.00088889 </v>
   <v>       0.00177778 </v>
   <v>       0.00177778 </v>
   <v>       0.00177778 </v>
   <v>       0.00177778 </v>
   <v>       0.00177778 </v>
   <v>       0.00177778 </v>
   <v>       0.00177778 </v>
   <v>       0.00177778 </v>
   <v>       0.00177778 </v>
   <v>       0.00088889 </v>
   <v>       0.00177778 </v>
   <v>       0.00177778 </v>
   <v>       0.00177778 </v>
   <v>       0.00177778 </v>
   <v>       0.00177778 </v>
   <v>       0.00177778 </v>
   <v>       0.00177778 </v>
   <v>       0.00177778 </v>
   <v>       0.00088889 </v>
   <v>       0.00177778 </v>
   <v>       0.00177778 </v>
   <v>       0.00177778 </v>
   <v>       0.00177778 </v>
   <v>       0.00177778 </v>
   <v>       0.00177778 </v>
   <v>       0.00177778 </v>
   <v>       0.00088889 </v>
   <v>       0.00177778 </v>
   <v>       0.00177778 </v>
   <v>       0.00177778 </v>
   <v>       0.00177778 </v>
   <v>       0.00177778 </v>
   <v>       0.00177778 </v>
   <v>       0.00088889 </v>
   <v>       0.00177778 </v>
   <v>       0.00177778 </v>
   <v>       0.00177778 </v>
   <v>       0.00177778 </v>
   <v>       0.00177778 </v>
   <v>       0.00088889 </v>
   <v>       0.00177778 </v>
   <v>       0.00177778 </v>
   <v>       0.00177778 </v>
   <v>       0.00177778 </v>
   <v>       0.00088889 </v>
   <v>       0.00177778 </v>
   <v>       0.00177778 </v>
   <v>       0.00177778 </v>
   <v>       0.00088889 </v>
   <v>       0.00177778 </v>
   <v>       0.00177778 </v>
   <v>       0.00088889 </v>
   <v>       0.00177778 </v>
   <v>       0.00088889 </v>
   <v>       0.00029630 </v>
   <v>       0.00088889 </v>
   <v>       0.00088889 </v>
   <v>       0.00088889 </v>
   <v>       0.00088889 </v>
   <v>       0.00088889 </v>
   <v>       0.00088889 </v>
   <v>       0.00088889 </v>
   <v>       0.00088889 </v>
   <v>       0.00088889 </v>
   <v>       0.00088889 </v>
   <v>       0.00088889 </v>
   <v>       0.00177778 </v>
   <v>       0.00177778 </v>
   <v>       0.00177778 </v>
   <v>       0.00177778 </v>
   <v>       0.00177778 </v>
   <v>       0.00177778 </v>
   <v>       0.00177778 </v>
   <v>       0.00177778 </v>
   <v>       0.00177778 </v>
   <v>       0.00088889 </v>
   <v>       0.00177778 </v>
   <v>       0.00177778 </v>
   <v>       0.00177778 </v>
   <v>       0.00177778 </v>
   <v>       0.00177778 </v>
   <v>       0.00177778 </v>
   <v>       0.00177778 </v>
   <v>       0.00177778 </v>
   <v>       0.00088889 </v>
   <v>       0.00177778 </v>
   <v>       0.00177778 </v>
   <v>       0.00177778 </v>
   <v>       0.00177778 </v>
   <v>       0.00177778 </v>
   <v>       0.00177778 </v>
   <v>       0.00177778 </v>
   <v>       0.00088889 </v>
   <v>       0.00177778 </v>
   <v>       0.00177778 </v>
   <v>       0.00177778 </v>
   <v>       0.00177778 </v>
   <v>       0.00177778 </v>
   <v>       0.00177778 </v>
   <v>       0.00088889 </v>
   <v>       0.00177778 </v>
   <v>       0.00177778 </v>
   <v>       0.00177778 </v>
   <v>       0.00177778 </v>
   <v>       0.00177778 </v>
   <v>       0.00088889 </v>
   <v>       0.00177778 </v>
   <v>       0.00177778 </v>
   <v>       0.00177778 </v>
   <v>       0.00177778 </v>
   <v>       0.00088889 </v>
   <v>       0.00177778 </v>
   <v>       0.00177778 </v>
   <v>       0.00177778 </v>
   <v>       0.00088889 </v>
   <v>       0.00177778 </v>
   <v>       0.00177778 </v>
   <v>       0.00088889 </v>
   <v>       0.00177778 </v>
   <v>       0.00088889 </v>
   <v>       0.00029630 </v>
   <v>       0.00088889 </v>
   <v>       0.00088889 </v>
   <v>       0.00088889 </v>
   <v>       0.00088889 </v>
   <v>       0.00088889 </v>
   <v>       0.00088889 </v>
   <v>       0.00088889 </v>
   <v>       0.00088889 </v>
   <v>       0.00088889 </v>
   <v>       0.00088889 </v>
   <v>       0.00177778 </v>
   <v>       0.00177778 </v>
   <v>       0.00177778 </v>
   <v>       0.00177778 </v>
   <v>       0.00177778 </v>
   <v>       0.00177778 </v>
   <v>       0.00177778 </v>
   <v>       0.00177778 </v>
   <v>       0.00088889 </v>
   <v>       0.00177778 </v>
   <v>       0.00177778 </v>
   <v>       0.00177778 </v>
   <v>       0.00177778 </v>
   <v>       0.00177778 </v>
   <v>       0.00177778 </v>
   <v>       0.00177778 </v>
   <v>       0.00088889 </v>
   <v>       0.00177778 </v>
   <v>       0.00177778 </v>
   <v>       0.00177778 </v>
   <v>       0.00177778 </v>
   <v>       0.00177778 </v>
   <v>       0.00177778 </v>
   <v>       0.00088889 </v>
   <v>       0.00177778 </v>
   <v>       0.00177778 </v>
   <v>       0.00177778 </v>
   <v>       0.00177778 </v>
   <v>       0.00177778 </v>
   <v>       0.00088889 </v>
   <v>       0.00177778 </v>
   <v>       0.00177778 </v>
   <v>       0.00177778 </v>
   <v>       0.00177778 </v>
   <v>       0.00088889 </v>
   <v>       0.00177778 </v>
   <v>       0.00177778 </v>
   <v>       0.00177778 </v>
   <v>       0.00088889 </v>
   <v>       0.00177778 </v>
   <v>       0.00177778 </v>
   <v>       0.00088889 </v>
   <v>       0.00177778 </v>
   <v>       0.00088889 </v>
   <v>       0.00029630 </v>
   <v>       0.00088889 </v>
   <v>       0.00088889 </v>
   <v>       0.00088889 </v>
   <v>       0.00088889 </v>
   <v>       0.00088889 </v>
   <v>       0.00088889 </v>
   <v>       0.00088889 </v>
   <v>       0.00088889 </v>
   <v>       0.00088889 </v>
   <v>       0.00177778 </v>
   <v>       0.00177778 </v>
   <v>       0.00177778 </v>
   <v>       0.00177778 </v>
   <v>       0.00177778 </v>
   <v>       0.00177778 </v>
   <v>       0.00177778 </v>
   <v>       0.00088889 </v>
   <v>       0.00177778 </v>
   <v>       0.00177778 </v>
   <v>       0.00177778 </v>
   <v>       0.00177778 </v>
   <v>       0.00177778 </v>
   <v>       0.00177778 </v>
   <v>       0.00088889 </v>
   <v>       0.00177778 </v>
   <v>       0.00177778 </v>
   <v>       0.00177778 </v>
   <v>       0.00177778 </v>
   <v>       0.00177778 </v>
   <v>       0.00088889 </v>
   <v>       0.00177778 </v>
   <v>       0.00177778 </v>
   <v>       0.00177778 </v>
   <v>       0.00177778 </v>
   <v>       0.00088889 </v>
   <v>       0.00177778 </v>
   <v>       0.00177778 </v>
   <v>       0.00177778 </v>
   <v>       0.00088889 </v>
   <v>       0.00177778 </v>
   <v>       0.00177778 </v>
   <v>       0.00088889 </v>
   <v>       0.00177778 </v>
   <v>       0.00088889 </v>
   <v>       0.00029630 </v>
   <v>       0.00088889 </v>
   <v>       0.00088889 </v>
   <v>       0.00088889 </v>
   <v>       0.00088889 </v>
   <v>       0.00088889 </v>
   <v>       0.00088889 </v>
   <v>       0.00088889 </v>
   <v>       0.00088889 </v>
   <v>       0.00177778 </v>
   <v>       0.00177778 </v>
   <v>       0.00177778 </v>
   <v>       0.00177778 </v>
   <v>       0.00177778 </v>
   <v>       0.00177778 </v>
   <v>       0.00088889 </v>
   <v>       0.00177778 </v>
   <v>       0.00177778 </v>
   <v>       0.00177778 </v>
   <v>       0.00177778 </v>
   <v>       0.00177778 </v>
   <v>       0.00088889 </v>
   <v>       0.00177778 </v>
   <v>       0.00177778 </v>
   <v>       0.00177778 </v>
   <v>       0.00177778 </v>
   <v>       0.00088889 </v>
   <v>       0.00177778 </v>
   <v>       0.00177778 </v>
   <v>       0.00177778 </v>
   <v>       0.00088889 </v>
   <v>       0.00177778 </v>
   <v>       0.00177778 </v>
   <v>       0.00088889 </v>
   <v>       0.00177778 </v>
   <v>       0.00088889 </v>
   <v>       0.00029630 </v>
   <v>       0.00088889 </v>
   <v>       0.00088889 </v>
   <v>       0.00088889 </v>
   <v>       0.00088889 </v>
   <v>       0.00088889 </v>
   <v>       0.00088889 </v>
   <v>       0.00088889 </v>
   <v>       0.00177778 </v>
   <v>       0.00177778 </v>
   <v>       0.00177778 </v>
   <v>       0.00177778 </v>
   <v>       0.00177778 </v>
   <v>       0.00088889 </v>
   <v>       0.00177778 </v>
   <v>       0.00177778 </v>
   <v>       0.00177778 </v>
   <v>       0.00177778 </v>
   <v>       0.00088889 </v>
   <v>       0.00177778 </v>
   <v>       0.00177778 </v>
   <v>       0.00177778 </v>
   <v>       0.00088889 </v>
   <v>       0.00177778 </v>
   <v>       0.00177778 </v>
   <v>       0.00088889 </v>
   <v>       0.00177778 </v>
   <v>       0.00088889 </v>
   <v>       0.00029630 </v>
   <v>       0.00088889 </v>
   <v>       0.00088889 </v>
   <v>       0.00088889 </v>
   <v>       0.00088889 </v>
   <v>       0.00088889 </v>
   <v>       0.00088889 </v>
   <v>       0.00177778 </v>
   <v>       0.00177778 </v>
   <v>       0.00177778 </v>
   <v>       0.00177778 </v>
   <v>       0.00088889 </v>
   <v>       0.00177778 </v>
   <v>       0.00177778 </v>
   <v>       0.00177778 </v>
   <v>       0.00088889 </v>
   <v>       0.00177778 </v>
   <v>       0.00177778 </v>
   <v>       0.00088889 </v>
   <v>       0.00177778 </v>
   <v>       0.00088889 </v>
   <v>       0.00029630 </v>
   <v>       0.00088889 </v>
   <v>       0.00088889 </v>
   <v>       0.00088889 </v>
   <v>       0.00088889 </v>
   <v>       0.00088889 </v>
   <v>       0.00177778 </v>
   <v>       0.00177778 </v>
   <v>       0.00177778 </v>
   <v>       0.00088889 </v>
   <v>       0.00177778 </v>
   <v>       0.00177778 </v>
   <v>       0.00088889 </v>
   <v>       0.00177778 </v>
   <v>       0.00088889 </v>
   <v>       0.00029630 </v>
   <v>       0.00088889 </v>
   <v>       0.00088889 </v>
   <v>       0.00088889 </v>
   <v>       0.00088889 </v>
   <v>       0.00177778 </v>
   <v>       0.00177778 </v>
   <v>       0.00088889 </v>
   <v>       0.00177778 </v>
   <v>       0.00088889 </v>
   <v>       0.00029630 </v>
   <v>       0.00088889 </v>
   <v>       0.00088889 </v>
   <v>       0.00088889 </v>
   <v>       0.00177778 </v>
   <v>       0.00088889 </v>
   <v>       0.00029630 </v>
   <v>       0.00088889 </v>
   <v>       0.00088889 </v>
   <v>       0.00029630 </v>
  </varray>
 </kpoints>
 <parameters>
  <separator name="general" >
   <i type="string" name="SYSTEM">unknown system</i>
   <i type="logical" name="LCOMPAT"> F  </i>
  </separator>
  <separator name="electronic" >
   <i type="string" name="PREC">accura</i>
   <i name="ENMAX">    300.00000000</i>
   <i name="ENAUG">    291.05200000</i>
   <i name="EDIFF">      0.00000001</i>
   <i type="int" name="IALGO">    38</i>
   <i type="int" name="IWAVPR">    11</i>
   <i type="int" name="NBANDS">    12</i>
   <i type="int" name="NBANDSLOW">    -1</i>
   <i type="int" name="NBANDSHIGH">    -1</i>
   <i name="NELECT">     12.00000000</i>
   <i type="int" name="TURBO">     0</i>
   <i type="int" name="IRESTART">     0</i>
   <i type="int" name="NREBOOT">     0</i>
   <i type="int" name="NMIN">     0</i>
   <i name="EREF">      0.00000000</i>
   <separator name="electronic smearing" >
    <i type="int" name="ISMEAR">     1</i>
    <i name="SIGMA">      0.20000000</i>
    <i name="KSPACING">      0.50000000</i>
    <i type="logical" name="KGAMMA"> T  </i>
    <i type="logical" name="KBLOWUP"> T  </i>
   </separator>
   <separator name="electronic projectors" >
    <i type="logical" name="LREAL"> F  </i>
    <v name="ROPT">      0.00000000</v>
    <i type="int" name="LMAXPAW">  -100</i>
    <i type="int" name="LMAXMIX">     2</i>
    <i type="logical" name="NLSPLINE"> F  </i>
   </separator>
   <separator name="electronic startup" >
    <i type="int" name="ISTART">     0</i>
    <i type="int" name="ICHARG">     2</i>
    <i type="int" name="INIWAV">     1</i>
   </separator>
   <separator name="electronic spin" >
    <i type="int" name="ISPIN">     1</i>
    <i type="logical" name="LNONCOLLINEAR"> F  </i>
    <v name="MAGMOM">      1.00000000      1.00000000      1.00000000      1.00000000</v>
    <i name="NUPDOWN">     -1.00000000</i>
    <i type="logical" name="LSORBIT"> F  </i>
    <v name="SAXIS">      0.00000000      0.00000000      1.00000000</v>
    <i type="logical" name="LSPIRAL"> F  </i>
    <v name="QSPIRAL">      0.00000000      0.00000000      0.00000000</v>
    <i type="logical" name="LZEROZ"> F  </i>
   </separator>
   <separator name="electronic exchange-correlation" >
    <i type="logical" name="LASPH"> F  </i>
    <i type="logical" name="LMETAGGA"> F  </i>
   </separator>
   <separator name="electronic convergence" >
    <i type="int" name="NELM">   300</i>
    <i type="int" name="NELMDL">    -5</i>
    <i type="int" name="NELMIN">     5</i>
    <i name="ENINI">    300.00000000</i>
    <separator name="electronic convergence detail" >
     <i type="logical" name="LDIAG"> T  </i>
     <i type="logical" name="LSUBROT"> F  </i>
     <i name="WEIMIN">      0.00100000</i>
     <i name="EBREAK">      0.00000000</i>
     <i name="DEPER">      0.30000000</i>
     <i type="int" name="NRMM">     4</i>
     <i name="TIME">      0.40000000</i>
    </separator>
   </separator>
   <separator name="electronic mixer" >
    <i name="AMIX">      0.40000000</i>
    <i name="BMIX">      1.00000000</i>
    <i name="AMIN">      0.10000000</i>
    <i name="AMIX_MAG">      1.60000000</i>
    <i name="BMIX_MAG">      1.00000000</i>
    <separator name="electronic mixer details" >
     <i type="int" name="IMIX">     4</i>
     <i type="logical" name="MIXFIRST"> F  </i>
     <i type="int" name="MAXMIX">   -45</i>
     <i name="WC">    100.00000000</i>
     <i type="int" name="INIMIX">     1</i>
     <i type="int" name="MIXPRE">     1</i>
     <i type="int" name="MREMOVE">     5</i>
    </separator>
   </separator>
   <separator name="electronic dipolcorrection" >
    <i type="logical" name="LDIPOL"> F  </i>
    <i type="logical" name="LMONO"> F  </i>
    <i type="int" name="IDIPOL">     0</i>
    <i name="EPSILON">      1.00000000</i>
    <v name="DIPOL">   -100.00000000   -100.00000000   -100.00000000</v>
    <i name="EFIELD">      0.00000000</i>
   </separator>
  </separator>
  <separator name="grids" >
   <i type="int" name="NGX">    24</i>
   <i type="int" name="NGY">    24</i>
   <i type="int" name="NGZ">    24</i>
   <i type="int" name="NGXF">    48</i>
   <i type="int" name="NGYF">    48</i>
   <i type="int" name="NGZF">    48</i>
   <i type="logical" name="ADDGRID"> T  </i>
  </separator>
  <separator name="ionic" >
   <i type="int" name="NSW">   500</i>
   <i type="int" name="IBRION">     2</i>
   <i type="int" name="MDALGO">     0</i>
   <i type="int" name="ISIF">     2</i>
   <i name="PSTRESS">      0.00000000</i>
   <i name="EDIFFG">     -0.00000001</i>
   <i type="int" name="NFREE">     1</i>
   <i name="POTIM">      0.50000000</i>
   <i name="SMASS">     -3.00000000</i>
   <i name="SCALEE">      1.00000000</i>
  </separator>
  <separator name="ionic md" >
   <i name="TEBEG">      0.00010000</i>
   <i name="TEEND">      0.00010000</i>
   <i type="int" name="NBLOCK">     1</i>
   <i type="int" name="KBLOCK">   500</i>
   <i type="int" name="NPACO">   256</i>
   <i name="APACO">     10.00000000</i>
  </separator>
  <separator name="symmetry" >
   <i type="int" name="ISYM">     2</i>
   <i name="SYMPREC">      0.00001000</i>
  </separator>
  <separator name="dos" >
   <i type="int" name="LORBIT">     0</i>
   <v name="RWIGS">     -1.00000000</v>
   <i type="int" name="NEDOS">   301</i>
   <i name="EMIN">     10.00000000</i>
   <i name="EMAX">    -10.00000000</i>
   <i name="EFERMI">      0.00000000</i>
  </separator>
  <separator name="writing" >
   <i type="int" name="NWRITE">     2</i>
   <i type="logical" name="LWAVE"> F  </i>
   <i type="logical" name="LDOWNSAMPLE"> F  </i>
   <i type="logical" name="LCHARG"> F  </i>
   <i type="logical" name="LPARD"> F  </i>
   <i type="logical" name="LVTOT"> F  </i>
   <i type="logical" name="LVHAR"> F  </i>
   <i type="logical" name="LELF"> F  </i>
   <i type="logical" name="LOPTICS"> F  </i>
   <v name="STM">      0.00000000      0.00000000      0.00000000      0.00000000      0.00000000      0.00000000      0.00000000</v>
  </separator>
  <separator name="performance" >
   <i type="int" name="NPAR">     4</i>
   <i type="int" name="NSIM">     4</i>
   <i type="int" name="NBLK">    -1</i>
   <i type="logical" name="LPLANE"> T  </i>
   <i type="logical" name="LSCALAPACK"> T  </i>
   <i type="logical" name="LSCAAWARE"> F  </i>
   <i type="logical" name="LSCALU"> F  </i>
   <i type="logical" name="LASYNC"> F  </i>
   <i type="logical" name="LORBITALREAL"> F  </i>
  </separator>
  <separator name="miscellaneous" >
   <i type="int" name="IDIOT">     3</i>
   <i type="int" name="PHON_NSTRUCT">    -1</i>
   <i type="logical" name="LMUSIC"> F  </i>
   <v name="POMASS">     26.98100000</v>
   <v name="DARWINR">      0.00000000</v>
   <v name="DARWINV">      1.00000000</v>
   <i type="logical" name="LCORR"> T  </i>
  </separator>
  <i type="logical" name="GGA_COMPAT"> T  </i>
  <i type="logical" name="LBERRY"> F  </i>
  <i type="int" name="ICORELEVEL">     0</i>
  <i type="logical" name="LDAU"> F  </i>
  <i type="int" name="I_CONSTRAINED_M">     0</i>
  <separator name="electronic exchange-correlation" >
   <i type="string" name="GGA">--</i>
   <i type="int" name="VOSKOWN">     0</i>
   <i type="logical" name="LHFCALC"> F  </i>
   <i type="string" name="PRECFOCK"></i>
   <i type="logical" name="LSYMGRAD"> F  </i>
   <i type="logical" name="LHFONE"> F  </i>
   <i type="logical" name="LRHFCALC"> F  </i>
   <i type="logical" name="LTHOMAS"> F  </i>
   <i type="logical" name="LMODELHF"> F  </i>
   <i type="logical" name="LFOCKACE"> F  </i>
   <i name="ENCUT4O">     -1.00000000</i>
   <i type="int" name="EXXOEP">     0</i>
   <i type="int" name="FOURORBIT">     0</i>
   <i name="AEXX">      0.00000000</i>
   <i name="HFALPHA">      0.00000000</i>
   <i name="MCALPHA">      0.00000000</i>
   <i name="ALDAX">      1.00000000</i>
   <i name="AGGAX">      1.00000000</i>
   <i name="ALDAC">      1.00000000</i>
   <i name="AGGAC">      1.00000000</i>
   <i type="int" name="NKREDX">     1</i>
   <i type="int" name="NKREDY">     1</i>
   <i type="int" name="NKREDZ">     1</i>
   <i type="logical" name="SHIFTRED"> F  </i>
   <i type="logical" name="ODDONLY"> F  </i>
   <i type="logical" name="EVENONLY"> F  </i>
   <i type="int" name="LMAXFOCK">     0</i>
   <i type="int" name="NMAXFOCKAE">     0</i>
   <i type="logical" name="LFOCKAEDFT"> F  </i>
   <i name="HFSCREEN">      0.00000000</i>
   <i name="HFSCREENC">      0.00000000</i>
   <i type="int" name="NBANDSGWLOW">     0</i>
  </separator>
  <separator name="vdW DFT" >
   <i type="logical" name="LUSE_VDW"> F  </i>
   <i name="Zab_VDW">     -0.84910000</i>
   <i name="PARAM1">      0.12340000</i>
   <i name="PARAM2">      1.00000000</i>
   <i name="PARAM3">      0.00000000</i>
  </separator>
  <separator name="model GW" >
   <i type="int" name="MODEL_GW">     0</i>
   <i name="MODEL_EPS0">     10.48693292</i>
   <i name="MODEL_ALPHA">      1.00000000</i>
  </separator>
  <separator name="linear response parameters" >
   <i type="logical" name="LEPSILON"> F  </i>
   <i type="logical" name="LRPA"> F  </i>
   <i type="logical" name="LNABLA"> F  </i>
   <i type="logical" name="LVEL"> F  </i>
   <i name="CSHIFT">      0.10000000</i>
   <i name="OMEGAMAX">     -1.00000000</i>
   <i name="DEG_THRESHOLD">      0.00200000</i>
   <i name="RTIME">     -0.10000000</i>
   <i name="WPLASMAI">      0.00000000</i>
   <v name="DFIELD">      0.00000000      0.00000000      0.00000000</v>
   <v name="WPLASMA">      0.00000000      0.00000000      0.00000000      0.00000000      0.00000000      0.00000000      0.00000000      0.00000000      0.00000000</v>
  </separator>
  <separator name="orbital magnetization" >
   <i type="logical" name="NUCIND"> F  </i>
   <v name="MAGPOS">      0.00000000      0.00000000      0.00000000</v>
   <i type="logical" name="LNICSALL"> T  </i>
   <i type="logical" name="ORBITALMAG"> F  </i>
   <i type="logical" name="LMAGBLOCH"> F  </i>
   <i type="logical" name="LCHIMAG"> F  </i>
   <i type="logical" name="LGAUGE"> T  </i>
   <i type="int" name="MAGATOM">     0</i>
   <v name="MAGDIPOL">      0.00000000      0.00000000      0.00000000</v>
   <v name="AVECCONST">      0.00000000      0.00000000      0.00000000</v>
  </separator>
  <separator name="response functions" >
   <i type="logical" name="LFINITE_TEMPERATURE"> F  </i>
   <i type="logical" name="LADDER"> F  </i>
   <i type="logical" name="LRPAFORCE"> F  </i>
   <i type="logical" name="LFXC"> F  </i>
   <i type="logical" name="LHARTREE"> T  </i>
   <i type="int" name="IBSE">     0</i>
   <v type="int" name="KPOINT">    -1     0     0     0</v>
   <i type="logical" name="LTCTC"> F  </i>
   <i type="logical" name="LTCTE"> F  </i>
   <i type="logical" name="LTETE"> F  </i>
   <i type="logical" name="LTRIPLET"> F  </i>
   <i type="logical" name="LFXCEPS"> F  </i>
   <i type="logical" name="LFXHEG"> F  </i>
   <i type="int" name="NATURALO">     2</i>
   <i type="logical" name="LHOLEGF"> F  </i>
   <i type="logical" name="L2ORDER"> F  </i>
   <i type="logical" name="LDMP1"> F  </i>
   <i type="logical" name="LMP2LT"> F  </i>
   <i type="logical" name="LSMP2LT"> F  </i>
   <i type="logical" name="LGWLF"> F  </i>
   <i name="ENCUTGW">     -2.00000000</i>
   <i name="ENCUTGWSOFT">     -2.00000000</i>
   <i name="ENCUTLF">     -1.00000000</i>
   <i type="logical" name="LESF_SPLINES"> F  </i>
   <i type="int" name="LMAXMP2">    -1</i>
   <i name="SCISSOR">      0.00000000</i>
   <i type="int" name="NOMEGA">     0</i>
   <i type="int" name="NOMEGAR">     0</i>
   <i type="int" name="NBANDSGW">    -1</i>
   <i type="int" name="NBANDSO">    -1</i>
   <i type="int" name="NBANDSV">    -1</i>
   <i type="int" name="NELMGW">     1</i>
   <i type="int" name="NELMHF">     1</i>
   <i type="int" name="DIM">     3</i>
   <i type="int" name="IESPILON">     4</i>
   <i type="int" name="ANTIRES">     0</i>
   <i name="OMEGAMAX">    -30.00000000</i>
   <i name="OMEGAMIN">    -30.00000000</i>
   <i name="OMEGATL">   -200.00000000</i>
   <i type="int" name="OMEGAGRID">     0</i>
   <i name="CSHIFT">     -0.10000000</i>
   <i type="logical" name="LSELFENERGY"> F  </i>
   <i type="logical" name="LSPECTRAL"> F  </i>
   <i type="logical" name="LSPECTRALGW"> F  </i>
   <i type="logical" name="LSINGLES"> F  </i>
   <i type="logical" name="LFERMIGW"> F  </i>
   <i type="logical" name="ODDONLYGW"> F  </i>
   <i type="logical" name="EVENONLYGW"> F  </i>
   <i type="int" name="NKREDLFX">     1</i>
   <i type="int" name="NKREDLFY">     1</i>
   <i type="int" name="NKREDLFZ">     1</i>
   <i type="int" name="MAXMEM">  2800</i>
   <i type="int" name="TELESCOPE">     0</i>
   <i type="int" name="NTAUPAR">    -1</i>
   <i type="int" name="NOMEGAPAR">    -1</i>
   <i name="DAMP_NEWTON">      0.80000001</i>
   <i name="LAMBDA">      1.00000000</i>
  </separator>
  <separator name="External order field" >
   <i name="OFIELD_KAPPA">      0.00000000</i>
   <v name="OFIELD_K">      0.00000000      0.00000000      0.00000000</v>
   <i name="OFIELD_Q6_NEAR">      0.00000000</i>
   <i name="OFIELD_Q6_FAR">      0.00000000</i>
   <i name="OFIELD_A">      0.00000000</i>
  </separator>
  <separator name="optional k-points parameters" >
   <i type="int" name="KPOINTS_OPT_MODE">     1</i>
   <i type="logical" name="LKPOINTS_OPT"> F  </i>
  </separator>
 </parameters>
 <atominfo>
  <atoms>       4 </atoms>
  <types>       1 </types>
  <array name="atoms" >
   <dimension dim="1">ion</dimension>
   <field type="string">element</field>
   <field type="int">atomtype</field>
   <set>
    <rc><c>Al</c><c>   1</c></rc>
    <rc><c>Al</c><c>   1</c></rc>
    <rc><c>Al</c><c>   1</c></rc>
    <rc><c>Al</c><c>   1</c></rc>
   </set>
  </array>
  <array name="atomtypes" >
   <dimension dim="1">type</dimension>
   <field type="int">atomspertype</field>
   <field type="string">element</field>
   <field>mass</field>
   <field>valence</field>
   <field type="string">pseudopotential</field>
   <set>
    <rc><c>   4</c><c>Al</c><c>     26.98100000</c><c>      3.00000000</c><c>  PAW_PBE Al 04Jan2001                  </c></rc>
   </set>
  </array>
 </atominfo>
 <structure name="initialpos" >
  <crystal>
   <varray name="basis" >
    <v>       4.11957497       0.00000000       0.00000000 </v>
    <v>       0.00000000       4.11957497       0.00000000 </v>
    <v>       0.00000000       0.00000000       4.11957497 </v>
   </varray>
   <i name="volume">     69.91288616 </i>
   <varray name="rec_basis" >
    <v>       0.24274349      -0.00000000       0.00000000 </v>
    <v>       0.00000000       0.24274349       0.00000000 </v>
    <v>      -0.00000000      -0.00000000       0.24274349 </v>
   </varray>
  </crystal>
  <varray name="positions" >
   <v>       0.00000000       0.00000000       0.00000000 </v>
   <v>       0.00000000       0.50000000       0.50000000 </v>
   <v>       0.50000000       0.00000000       0.50000000 </v>
   <v>       0.50000000       0.50000000       0.00000000 </v>
[...]
       <r>    1.6558    1.0000 </r>
       <r>    1.9370    1.0000 </r>
       <r>    3.0535    1.0000 </r>
       <r>    3.0535    1.0000 </r>
       <r>    3.3407    1.0000 </r>
       <r>    3.3407    1.0000 </r>
       <r>    4.4481    1.0000 </r>
       <r>    4.7253    1.0000 </r>
       <r>   16.4714    0.0000 </r>
       <r>   16.4714    0.0000 </r>
       <r>   16.6478    0.0000 </r>
       <r>   16.6478    0.0000 </r>
      </set>
      <set comment="kpoint 674">
       <r>    1.6370    1.0000 </r>
       <r>    2.4791    1.0000 </r>
       <r>    2.4791    1.0000 </r>
       <r>    3.0351    1.0000 </r>
       <r>    3.3222    1.0000 </r>
       <r>    3.8754    1.0000 </r>
       <r>    3.8754    1.0000 </r>
       <r>    4.7072    1.0000 </r>
       <r>   16.4739    0.0000 </r>
       <r>   16.9445    0.0000 </r>
       <r>   16.9498    0.0000 </r>
       <r>   16.9689    0.0000 </r>
      </set>
      <set comment="kpoint 675">
       <r>    1.8997    1.0000 </r>
       <r>    2.1804    1.0000 </r>
       <r>    2.7399    1.0000 </r>
       <r>    3.0167    1.0000 </r>
       <r>    3.3034    1.0000 </r>
       <r>    3.5794    1.0000 </r>
       <r>    4.1343    1.0000 </r>
       <r>    4.4114    1.0000 </r>
       <r>   16.6722    0.0000 </r>
       <r>   16.8536    0.0000 </r>
       <r>   17.1085    0.0000 </r>
       <r>   17.1979    0.0000 </r>
      </set>
      <set comment="kpoint 676">
       <r>    2.1617    1.0000 </r>
       <r>    2.4419    1.0000 </r>
       <r>    2.4419    1.0000 </r>
       <r>    2.7214    1.0000 </r>
       <r>    3.5608    1.0000 </r>
       <r>    3.8384    1.0000 </r>
       <r>    3.8384    1.0000 </r>
       <r>    4.1159    1.0000 </r>
       <r>   16.8756    0.0000 </r>
       <r>   17.0660    0.0000 </r>
       <r>   17.0660    0.0000 </r>
       <r>   17.2705    0.0000 </r>
      </set>
      <set comment="kpoint 677">
       <r>    1.8810    1.0000 </r>
       <r>    2.7213    1.0000 </r>
       <r>    2.7213    1.0000 </r>
       <r>    2.7213    1.0000 </r>
       <r>    3.5609    1.0000 </r>
       <r>    3.5609    1.0000 </r>
       <r>    3.5609    1.0000 </r>
       <r>    4.3931    1.0000 </r>
       <r>   17.1290    0.0000 </r>
       <r>   17.1292    0.0000 </r>
       <r>   17.1326    0.0000 </r>
       <r>   17.3306    0.0000 </r>
      </set>
      <set comment="kpoint 678">
       <r>    2.1432    1.0000 </r>
       <r>    2.4234    1.0000 </r>
       <r>    2.9799    1.0000 </r>
       <r>    2.9799    1.0000 </r>
       <r>    3.2663    1.0000 </r>
       <r>    3.2663    1.0000 </r>
       <r>    3.8200    1.0000 </r>
       <r>    4.0975    1.0000 </r>
       <r>   17.2997    0.0000 </r>
       <r>   17.2998    0.0000 </r>
       <r>   17.4109    0.0000 </r>
       <r>   17.4136    0.0000 </r>
      </set>
      <set comment="kpoint 679">
       <r>    2.4048    1.0000 </r>
       <r>    2.6843    1.0000 </r>
       <r>    2.6843    1.0000 </r>
       <r>    2.9614    1.0000 </r>
       <r>    3.2476    1.0000 </r>
       <r>    3.5239    1.0000 </r>
       <r>    3.5239    1.0000 </r>
       <r>    3.8016    1.0000 </r>
       <r>   17.4864    0.0000 </r>
       <r>   17.6199    0.0000 </r>
       <r>   17.6231    0.0000 </r>
       <r>   17.8131    0.0000 </r>
      </set>
      <set comment="kpoint 680">
       <r>    2.6657    1.0000 </r>
       <r>    2.9430    1.0000 </r>
       <r>    2.9430    1.0000 </r>
       <r>    2.9430    1.0000 </r>
       <r>    3.2290    1.0000 </r>
       <r>    3.2290    1.0000 </r>
       <r>    3.2290    1.0000 </r>
       <r>    3.5054    1.0000 </r>
       <r>   18.0062    0.0000 </r>
       <r>   18.0111    0.0000 </r>
       <r>   18.0170    0.0000 </r>
       <r>   18.0181    0.0000 </r>
      </set>
     </set>
    </set>
   </array>
  </eigenvalues>
  <separator name="orbital magnetization" >
   <v name="MAGDIPOLOUT">      0.00000000      0.00000000      0.00000000</v>
  </separator>
  <dos>
   <i name="efermi">      7.42040993 </i>
   <total>
    <array>
     <dimension dim="1">gridpoints</dimension>
     <dimension dim="2">spin</dimension>
     <field>energy</field>
     <field>total</field>
     <field>integrated</field>
     <set>
      <set comment="spin 1">
       <r>    -5.3219     0.0000     0.0000 </r>
       <r>    -5.2374     0.0000     0.0000 </r>
       <r>    -5.1530     0.0000     0.0000 </r>
       <r>    -5.0685     0.0000     0.0000 </r>
       <r>    -4.9840    -0.0000    -0.0000 </r>
       <r>    -4.8996    -0.0000    -0.0000 </r>
       <r>    -4.8151    -0.0000    -0.0000 </r>
       <r>    -4.7306    -0.0000    -0.0000 </r>
       <r>    -4.6462    -0.0000    -0.0000 </r>
       <r>    -4.5617    -0.0000    -0.0000 </r>
       <r>    -4.4772    -0.0000    -0.0000 </r>
       <r>    -4.3928    -0.0000    -0.0000 </r>
       <r>    -4.3083    -0.0000    -0.0000 </r>
       <r>    -4.2238    -0.0000    -0.0000 </r>
       <r>    -4.1394    -0.0000    -0.0000 </r>
       <r>    -4.0549    -0.0000    -0.0000 </r>
       <r>    -3.9704    -0.0000    -0.0000 </r>
       <r>    -3.8860    -0.0000    -0.0000 </r>
       <r>    -3.8015    -0.0001    -0.0000 </r>
       <r>    -3.7170    -0.0005    -0.0001 </r>
       <r>    -3.6326    -0.0020    -0.0002 </r>
       <r>    -3.5481    -0.0048    -0.0006 </r>
       <r>    -3.4636    -0.0048    -0.0010 </r>
       <r>    -3.3792     0.0102    -0.0002 </r>
       <r>    -3.2947     0.0523     0.0042 </r>
       <r>    -3.2102     0.1171     0.0141 </r>
       <r>    -3.1258     0.1848     0.0297 </r>
       <r>    -3.0413     0.2400     0.0500 </r>
       <r>    -2.9568     0.2818     0.0738 </r>
       <r>    -2.8724     0.3159     0.1005 </r>
       <r>    -2.7879     0.3463     0.1297 </r>
       <r>    -2.7034     0.3744     0.1614 </r>
       <r>    -2.6190     0.4008     0.1952 </r>
       <r>    -2.5345     0.4257     0.2312 </r>
       <r>    -2.4500     0.4492     0.2691 </r>
       <r>    -2.3656     0.4716     0.3090 </r>
       <r>    -2.2811     0.4931     0.3506 </r>
       <r>    -2.1966     0.5138     0.3940 </r>
       <r>    -2.1122     0.5336     0.4391 </r>
       <r>    -2.0277     0.5530     0.4858 </r>
       <r>    -1.9432     0.5717     0.5341 </r>
       <r>    -1.8588     0.5895     0.5839 </r>
       <r>    -1.7743     0.6077     0.6352 </r>
       <r>    -1.6898     0.6246     0.6880 </r>
       <r>    -1.6054     0.6406     0.7421 </r>
       <r>    -1.5209     0.6582     0.7977 </r>
       <r>    -1.4364     0.6741     0.8546 </r>
       <r>    -1.3520     0.6881     0.9127 </r>
       <r>    -1.2675     0.7051     0.9723 </r>
       <r>    -1.1830     0.7214     1.0332 </r>
       <r>    -1.0986     0.7332     1.0952 </r>
       <r>    -1.0141     0.7479     1.1583 </r>
       <r>    -0.9296     0.7662     1.2230 </r>
       <r>    -0.8452     0.7783     1.2888 </r>
       <r>    -0.7607     0.7882     1.3554 </r>
       <r>    -0.6762     0.8057     1.4234 </r>
       <r>    -0.5918     0.8228     1.4929 </r>
       <r>    -0.5073     0.8314     1.5631 </r>
       <r>    -0.4228     0.8404     1.6341 </r>
       <r>    -0.3384     0.8596     1.7067 </r>
       <r>    -0.2539     0.8773     1.7808 </r>
       <r>    -0.1694     0.8820     1.8553 </r>
       <r>    -0.0850     0.8894     1.9305 </r>
       <r>    -0.0005     0.9107     2.0074 </r>
       <r>     0.0840     0.9282     2.0858 </r>
       <r>     0.1684     0.9323     2.1645 </r>
       <r>     0.2529     0.9373     2.2437 </r>
       <r>     0.3374     0.9546     2.3243 </r>
       <r>     0.4218     0.9768     2.4068 </r>
       <r>     0.5063     0.9869     2.4902 </r>
       <r>     0.5908     0.9840     2.5733 </r>
       <r>     0.6752     0.9936     2.6572 </r>
       <r>     0.7597     1.0219     2.7436 </r>
       <r>     0.8442     1.0386     2.8313 </r>
       <r>     0.9286     1.0344     2.9187 </r>
       <r>     1.0131     1.0368     3.0062 </r>
       <r>     1.0976     1.0570     3.0955 </r>
       <r>     1.1820     1.0797     3.1867 </r>
       <r>     1.2665     1.0915     3.2789 </r>
       <r>     1.3510     1.0906     3.3710 </r>
       <r>     1.4354     1.0893     3.4630 </r>
       <r>     1.5199     1.1070     3.5565 </r>
       <r>     1.6044     1.1390     3.6527 </r>
       <r>     1.6888     1.1519     3.7500 </r>
       <r>     1.7733     1.1378     3.8461 </r>
       <r>     1.8578     1.1362     3.9421 </r>
       <r>     1.9422     1.1662     4.0406 </r>
       <r>     2.0267     1.1943     4.1415 </r>
       <r>     2.1112     1.1978     4.2427 </r>
       <r>     2.1956     1.1944     4.3436 </r>
       <r>     2.2801     1.1973     4.4447 </r>
       <r>     2.3646     1.2087     4.5468 </r>
       <r>     2.4490     1.2337     4.6510 </r>
       <r>     2.5335     1.2597     4.7574 </r>
       <r>     2.6180     1.2615     4.8639 </r>
       <r>     2.7024     1.2441     4.9690 </r>
       <r>     2.7869     1.2466     5.0743 </r>
       <r>     2.8714     1.2842     5.1828 </r>
       <r>     2.9558     1.3204     5.2943 </r>
       <r>     3.0403     1.3179     5.4056 </r>
       <r>     3.1248     1.2958     5.5151 </r>
       <r>     3.2092     1.3001     5.6249 </r>
       <r>     3.2937     1.3306     5.7373 </r>
       <r>     3.3782     1.3539     5.8517 </r>
       <r>     3.4626     1.3623     5.9667 </r>
       <r>     3.5471     1.3692     6.0824 </r>
       <r>     3.6316     1.3711     6.1982 </r>
       <r>     3.7160     1.3663     6.3136 </r>
       <r>     3.8005     1.3819     6.4303 </r>
       <r>     3.8850     1.4231     6.5505 </r>
       <r>     3.9694     1.4467     6.6727 </r>
       <r>     4.0539     1.4318     6.7937 </r>
       <r>     4.1384     1.4161     6.9133 </r>
       <r>     4.2228     1.4393     7.0349 </r>
       <r>     4.3073     1.4869     7.1605 </r>
       <r>     4.3918     1.5125     7.2882 </r>
       <r>     4.4762     1.5100     7.4158 </r>
       <r>     4.5607     1.5223     7.5444 </r>
       <r>     4.6452     1.5691     7.6769 </r>
       <r>     4.7296     1.6106     7.8129 </r>
       <r>     4.8141     1.6045     7.9485 </r>
       <r>     4.8986     1.5687     8.0810 </r>
       <r>     4.9830     1.5543     8.2123 </r>
       <r>     5.0675     1.5628     8.3443 </r>
       <r>     5.1520     1.5490     8.4751 </r>
       <r>     5.2364     1.5094     8.6026 </r>
       <r>     5.3209     1.4860     8.7281 </r>
       <r>     5.4054     1.4906     8.8540 </r>
       <r>     5.4898     1.4902     8.9799 </r>
       <r>     5.5743     1.4602     9.1032 </r>
       <r>     5.6588     1.4241     9.2235 </r>
       <r>     5.7432     1.4193     9.3434 </r>
       <r>     5.8277     1.4469     9.4656 </r>
       <r>     5.9122     1.4828     9.5909 </r>
       <r>     5.9966     1.5038     9.7179 </r>
       <r>     6.0811     1.5055     9.8450 </r>
       <r>     6.1656     1.5141     9.9729 </r>
       <r>     6.2500     1.5486    10.1037 </r>
       <r>     6.3345     1.5895    10.2380 </r>
       <r>     6.4190     1.6113    10.3741 </r>
       <r>     6.5034     1.6088    10.5100 </r>
       <r>     6.5879     1.5989    10.6450 </r>
       <r>     6.6724     1.5998    10.7802 </r>
       <r>     6.7568     1.6051    10.9158 </r>
       <r>     6.8413     1.6064    11.0514 </r>
       <r>     6.9258     1.6142    11.1878 </r>
       <r>     7.0102     1.6314    11.3256 </r>
       <r>     7.0947     1.6398    11.4641 </r>
       <r>     7.1792     1.6289    11.6017 </r>
       <r>     7.2636     1.6229    11.7388 </r>
       <r>     7.3481     1.6486    11.8780 </r>
       <r>     7.4326     1.6896    12.0207 </r>
       <r>     7.5170     1.7177    12.1658 </r>
       <r>     7.6015     1.7339    12.3123 </r>
       <r>     7.6860     1.7369    12.4590 </r>
       <r>     7.7704     1.7161    12.6039 </r>
       <r>     7.8549     1.6944    12.7471 </r>
       <r>     7.9394     1.7091    12.8914 </r>
       <r>     8.0238     1.7522    13.0394 </r>
       <r>     8.1083     1.7732    13.1892 </r>
       <r>     8.1928     1.7559    13.3375 </r>
       <r>     8.2772     1.7478    13.4851 </r>
       <r>     8.3617     1.7702    13.6347 </r>
       <r>     8.4462     1.7753    13.7846 </r>
       <r>     8.5306     1.7419    13.9318 </r>
       <r>     8.6151     1.7257    14.0775 </r>
       <r>     8.6996     1.7789    14.2278 </r>
       <r>     8.7840     1.8760    14.3862 </r>
       <r>     8.8685     1.9183    14.5483 </r>
       <r>     8.9530     1.8415    14.7038 </r>
       <r>     9.0374     1.7336    14.8503 </r>
       <r>     9.1219     1.7341    14.9967 </r>
       <r>     9.2064     1.8353    15.1518 </r>
       <r>     9.2908     1.9190    15.3138 </r>
       <r>     9.3753     1.9288    15.4768 </r>
       <r>     9.4598     1.8926    15.6366 </r>
       <r>     9.5442     1.8550    15.7933 </r>
       <r>     9.6287     1.8523    15.9498 </r>
       <r>     9.7132     1.8784    16.1084 </r>
       <r>     9.7976     1.8904    16.2681 </r>
       <r>     9.8821     1.8911    16.4278 </r>
       <r>     9.9666     1.9202    16.5900 </r>
       <r>    10.0510     1.9657    16.7561 </r>
       <r>    10.1355     1.9797    16.9233 </r>
       <r>    10.2200     1.9503    17.0880 </r>
       <r>    10.3044     1.9150    17.2498 </r>
       <r>    10.3889     1.9200    17.4120 </r>
       <r>    10.4734     1.9617    17.5777 </r>
       <r>    10.5578     1.9944    17.7461 </r>
       <r>    10.6423     1.9943    17.9146 </r>
       <r>    10.7268     1.9825    18.0820 </r>
       <r>    10.8112     2.0008    18.2510 </r>
       <r>    10.8957     2.0478    18.4240 </r>
       <r>    10.9802     2.0663    18.5985 </r>
       <r>    11.0646     2.0305    18.7700 </r>
       <r>    11.1491     1.9845    18.9376 </r>
       <r>    11.2336     1.9824    19.1051 </r>
       <r>    11.3180     2.0374    19.2772 </r>
       <r>    11.4025     2.1154    19.4559 </r>
       <r>    11.4870     2.1555    19.6379 </r>
       <r>    11.5714     2.1299    19.8179 </r>
       <r>    11.6559     2.0890    19.9943 </r>
       <r>    11.7404     2.0859    20.1705 </r>
       <r>    11.8248     2.0945    20.3474 </r>
       <r>    11.9093     2.0882    20.5238 </r>
       <r>    11.9938     2.1134    20.7023 </r>
       <r>    12.0782     2.1741    20.8859 </r>
       <r>    12.1627     2.1783    21.0699 </r>
       <r>    12.2472     2.0963    21.2470 </r>
       <r>    12.3316     1.9991    21.4159 </r>
       <r>    12.4161     1.9078    21.5770 </r>
       <r>    12.5006     1.7832    21.7276 </r>
       <r>    12.5850     1.6465    21.8667 </r>
       <r>    12.6695     1.5617    21.9986 </r>
       <r>    12.7540     1.5195    22.1270 </r>
       <r>    12.8384     1.4461    22.2491 </r>
       <r>    12.9229     1.3106    22.3598 </r>
       <r>    13.0074     1.1550    22.4574 </r>
       <r>    13.0918     1.0360    22.5449 </r>
       <r>    13.1763     0.9683    22.6267 </r>
       <r>    13.2608     0.9203    22.7044 </r>
       <r>    13.3452     0.8726    22.7781 </r>
       <r>    13.4297     0.8409    22.8491 </r>
       <r>    13.5142     0.8128    22.9178 </r>
       <r>    13.5986     0.7551    22.9816 </r>
       <r>    13.6831     0.6859    23.0395 </r>
       <r>    13.7676     0.6428    23.0938 </r>
       <r>    13.8520     0.6164    23.1459 </r>
       <r>    13.9365     0.5815    23.1950 </r>
       <r>    14.0210     0.5459    23.2411 </r>
       <r>    14.1054     0.5245    23.2854 </r>
       <r>    14.1899     0.5097    23.3285 </r>
       <r>    14.2744     0.4899    23.3698 </r>
       <r>    14.3588     0.4644    23.4091 </r>
       <r>    14.4433     0.4387    23.4461 </r>
       <r>    14.5278     0.4159    23.4812 </r>
       <r>    14.6122     0.3943    23.5146 </r>
       <r>    14.6967     0.3720    23.5460 </r>
       <r>    14.7812     0.3442    23.5750 </r>
       <r>    14.8656     0.3161    23.6017 </r>
       <r>    14.9501     0.3037    23.6274 </r>
       <r>    15.0346     0.3033    23.6530 </r>
       <r>    15.1190     0.2949    23.6779 </r>
       <r>    15.2035     0.2741    23.7011 </r>
       <r>    15.2880     0.2514    23.7223 </r>
       <r>    15.3724     0.2341    23.7421 </r>
       <r>    15.4569     0.2229    23.7609 </r>
       <r>    15.5414     0.2189    23.7794 </r>
       <r>    15.6258     0.2192    23.7979 </r>
       <r>    15.7103     0.2118    23.8158 </r>
       <r>    15.7948     0.1941    23.8322 </r>
       <r>    15.8792     0.1761    23.8471 </r>
       <r>    15.9637     0.1636    23.8609 </r>
       <r>    16.0482     0.1545    23.8739 </r>
       <r>    16.1326     0.1435    23.8861 </r>
       <r>    16.2171     0.1313    23.8971 </r>
       <r>    16.3016     0.1207    23.9073 </r>
       <r>    16.3860     0.1104    23.9167 </r>
       <r>    16.4705     0.1020    23.9253 </r>
       <r>    16.5550     0.0963    23.9334 </r>
       <r>    16.6394     0.0912    23.9411 </r>
       <r>    16.7239     0.0847    23.9483 </r>
       <r>    16.8084     0.0772    23.9548 </r>
       <r>    16.8928     0.0709    23.9608 </r>
       <r>    16.9773     0.0657    23.9663 </r>
       <r>    17.0618     0.0609    23.9715 </r>
       <r>    17.1462     0.0575    23.9763 </r>
       <r>    17.2307     0.0540    23.9809 </r>
       <r>    17.3152     0.0483    23.9850 </r>
       <r>    17.3996     0.0402    23.9884 </r>
       <r>    17.4841     0.0316    23.9910 </r>
       <r>    17.5686     0.0246    23.9931 </r>
       <r>    17.6530     0.0194    23.9947 </r>
       <r>    17.7375     0.0146    23.9960 </r>
       <r>    17.8220     0.0110    23.9969 </r>
       <r>    17.9064     0.0100    23.9978 </r>
       <r>    17.9909     0.0107    23.9987 </r>
       <r>    18.0754     0.0097    23.9995 </r>
       <r>    18.1598     0.0057    24.0000 </r>
       <r>    18.2443     0.0015    24.0001 </r>
       <r>    18.3288    -0.0004    24.0001 </r>
       <r>    18.4132    -0.0005    24.0000 </r>
       <r>    18.4977    -0.0002    24.0000 </r>
       <r>    18.5822    -0.0000    24.0000 </r>
       <r>    18.6666    -0.0000    24.0000 </r>
       <r>    18.7511    -0.0000    24.0000 </r>
       <r>    18.8356    -0.0000    24.0000 </r>
       <r>    18.9200    -0.0000    24.0000 </r>
       <r>    19.0045    -0.0000    24.0000 </r>
       <r>    19.0890    -0.0000    24.0000 </r>
       <r>    19.1734    -0.0000    24.0000 </r>
       <r>    19.2579    -0.0000    24.0000 </r>
       <r>    19.3424     0.0000    24.0000 </r>
       <r>    19.4268     0.0000    24.0000 </r>
       <r>    19.5113     0.0000    24.0000 </r>
       <r>    19.5958     0.0000    24.0000 </r>
       <r>    19.6802     0.0000    24.0000 </r>
       <r>    19.7647     0.0000    24.0000 </r>
       <r>    19.8492     0.0000    24.0000 </r>
       <r>    19.9336     0.0000    24.0000 </r>
       <r>    20.0181     0.0000    24.0000 </r>
      </set>
     </set>
    </array>
   </total>
  </dos>
 </calculation>
 <structure name="finalpos" >
  <crystal>
   <varray name="basis" >
    <v>       4.11957497       0.00000000       0.00000000 </v>
    <v>       0.00000000       4.11957497       0.00000000 </v>
    <v>       0.00000000       0.00000000       4.11957497 </v>
   </varray>
   <i name="volume">     69.91288616 </i>
   <varray name="rec_basis" >
    <v>       0.24274349      -0.00000000       0.00000000 </v>
    <v>       0.00000000       0.24274349       0.00000000 </v>
    <v>      -0.00000000      -0.00000000       0.24274349 </v>
   </varray>
  </crystal>
  <varray name="positions" >
   <v>       0.00000000       0.00000000       0.00000000 </v>
   <v>       0.00000000       0.50000000       0.50000000 </v>
   <v>       0.50000000       0.00000000       0.50000000 </v>
   <v>       0.50000000       0.50000000       0.00000000 </v>
  </varray>
 </structure>
</modeling>
