<?xml version="1.0" encoding="ISO-8859-1"?>
<modeling>
 <generator>
  <i name="program" type="string">vasp </i>
  <i name="version" type="string">6.3.2  </i>
  <i name="subversion" type="string">27Jun22 (build Aug 12 2022 00:53:59) complex                          parallel </i>
  <i name="platform" type="string">tv2STD </i>
  <i name="date" type="string">2025 06 30 </i>
  <i name="time" type="string">23:51:54 </i>
 </generator>
 <incar>
  <i type="string" name="PREC">Accurate</i>
  <i type="string" name="ALGO">Normal</i>
  <i type="logical" name="ADDGRID"> T  </i>
  <i type="int" name="NELM">   300</i>
  <i type="int" name="NELMIN">     5</i>
  <i type="int" name="IBRION">     2</i>
  <i name="EDIFF">      0.00000001</i>
  <i name="EDIFFG">     -0.00000001</i>
  <i type="int" name="NSW">   500</i>
  <i type="int" name="ISIF">     3</i>
  <i name="ENCUT">    300.00000000</i>
  <i type="logical" name="LREAL"> F  </i>
  <i type="int" name="ISMEAR">     1</i>
  <i name="SIGMA">      0.20000000</i>
  <i type="logical" name="LWAVE"> F  </i>
  <i type="logical" name="LCHARG"> F  </i>
 </incar>
 <primitive_cell>
  <structure name="primitive_cell" >
   <crystal>
    <varray name="basis" >
     <v>       2.01946485      -2.01946485       0.00000000 </v>
     <v>       2.01946485       0.00000000       2.01946485 </v>
     <v>      -0.00000000      -2.01946485       2.01946485 </v>
    </varray>
    <i name="volume">     16.47171763 </i>
    <varray name="rec_basis" >
     <v>       0.24759035      -0.24759035      -0.24759035 </v>
     <v>       0.24759035       0.24759035       0.24759035 </v>
     <v>      -0.24759035      -0.24759035       0.24759035 </v>
    </varray>
   </crystal>
   <varray name="positions" >
    <v>       0.00000000       0.00000000       0.00000000 </v>
   </varray>
  </structure>
  <varray name="primitive_index" >
   <v type="int" >        1 </v>
  </varray>
 </primitive_cell>
 <kpoints>
  <generation param="Monkhorst-Pack">
   <v type="int" name="divisions">      30       30       30 </v>
   <v name="usershift">      0.00000000       0.00000000       0.00000000 </v>
   <v name="genvec1">      0.03333333       0.00000000       0.00000000 </v>
   <v name="genvec2">      0.00000000       0.03333333       0.00000000 </v>
   <v name="genvec3">      0.00000000       0.00000000       0.03333333 </v>
   <v name="shift">      0.50000000       0.50000000       0.50000000 </v>
  </generation>
  <varray name="kpointlist" >
   <v>       0.01666667       0.01666667       0.01666667 </v>
   <v>       0.05000000       0.01666667       0.01666667 </v>
   <v>       0.08333333       0.01666667       0.01666667 </v>
   <v>       0.11666667       0.01666667       0.01666667 </v>
   <v>       0.15000000       0.01666667       0.01666667 </v>
   <v>       0.18333333       0.01666667       0.01666667 </v>
   <v>       0.21666667       0.01666667       0.01666667 </v>
   <v>       0.25000000       0.01666667       0.01666667 </v>
   <v>       0.28333333       0.01666667       0.01666667 </v>
   <v>       0.31666667       0.01666667       0.01666667 </v>
   <v>       0.35000000       0.01666667       0.01666667 </v>
   <v>       0.38333333       0.01666667       0.01666667 </v>
   <v>       0.41666667       0.01666667       0.01666667 </v>
   <v>       0.45000000       0.01666667       0.01666667 </v>
   <v>       0.48333333       0.01666667       0.01666667 </v>
   <v>       0.05000000       0.05000000       0.01666667 </v>
   <v>       0.08333333       0.05000000       0.01666667 </v>
   <v>       0.11666667       0.05000000       0.01666667 </v>
   <v>       0.15000000       0.05000000       0.01666667 </v>
   <v>       0.18333333       0.05000000       0.01666667 </v>
   <v>       0.21666667       0.05000000       0.01666667 </v>
   <v>       0.25000000       0.05000000       0.01666667 </v>
   <v>       0.28333333       0.05000000       0.01666667 </v>
   <v>       0.31666667       0.05000000       0.01666667 </v>
   <v>       0.35000000       0.05000000       0.01666667 </v>
   <v>       0.38333333       0.05000000       0.01666667 </v>
   <v>       0.41666667       0.05000000       0.01666667 </v>
   <v>       0.45000000       0.05000000       0.01666667 </v>
   <v>       0.48333333       0.05000000       0.01666667 </v>
   <v>       0.08333333       0.08333333       0.01666667 </v>
   <v>       0.11666667       0.08333333       0.01666667 </v>
   <v>       0.15000000       0.08333333       0.01666667 </v>
   <v>       0.18333333       0.08333333       0.01666667 </v>
   <v>       0.21666667       0.08333333       0.01666667 </v>
   <v>       0.25000000       0.08333333       0.01666667 </v>
   <v>       0.28333333       0.08333333       0.01666667 </v>
   <v>       0.31666667       0.08333333       0.01666667 </v>
   <v>       0.35000000       0.08333333       0.01666667 </v>
   <v>       0.38333333       0.08333333       0.01666667 </v>
   <v>       0.41666667       0.08333333       0.01666667 </v>
   <v>       0.45000000       0.08333333       0.01666667 </v>
   <v>       0.48333333       0.08333333       0.01666667 </v>
   <v>       0.11666667       0.11666667       0.01666667 </v>
   <v>       0.15000000       0.11666667       0.01666667 </v>
   <v>       0.18333333       0.11666667       0.01666667 </v>
   <v>       0.21666667       0.11666667       0.01666667 </v>
   <v>       0.25000000       0.11666667       0.01666667 </v>
   <v>       0.28333333       0.11666667       0.01666667 </v>
   <v>       0.31666667       0.11666667       0.01666667 </v>
   <v>       0.35000000       0.11666667       0.01666667 </v>
   <v>       0.38333333       0.11666667       0.01666667 </v>
   <v>       0.41666667       0.11666667       0.01666667 </v>
   <v>       0.45000000       0.11666667       0.01666667 </v>
   <v>       0.48333333       0.11666667       0.01666667 </v>
   <v>       0.15000000       0.15000000       0.01666667 </v>
   <v>       0.18333333       0.15000000       0.01666667 </v>
   <v>       0.21666667       0.15000000       0.01666667 </v>
   <v>       0.25000000       0.15000000       0.01666667 </v>
   <v>       0.28333333       0.15000000       0.01666667 </v>
   <v>       0.31666667       0.15000000       0.01666667 </v>
   <v>       0.35000000       0.15000000       0.01666667 </v>
   <v>       0.38333333       0.15000000       0.01666667 </v>
   <v>       0.41666667       0.15000000       0.01666667 </v>
   <v>       0.45000000       0.15000000       0.01666667 </v>
   <v>       0.48333333       0.15000000       0.01666667 </v>
   <v>       0.18333333       0.18333333       0.01666667 </v>
   <v>       0.21666667       0.18333333       0.01666667 </v>
   <v>       0.25000000       0.18333333       0.01666667 </v>
   <v>       0.28333333       0.18333333       0.01666667 </v>
   <v>       0.31666667       0.18333333       0.01666667 </v>
   <v>       0.35000000       0.18333333       0.01666667 </v>
   <v>       0.38333333       0.18333333       0.01666667 </v>
   <v>       0.41666667       0.18333333       0.01666667 </v>
   <v>       0.45000000       0.18333333       0.01666667 </v>
   <v>       0.48333333       0.18333333       0.01666667 </v>
   <v>       0.21666667       0.21666667       0.01666667 </v>
   <v>       0.25000000       0.21666667       0.01666667 </v>
   <v>       0.28333333       0.21666667       0.01666667 </v>
   <v>       0.31666667       0.21666667       0.01666667 </v>
   <v>       0.35000000       0.21666667       0.01666667 </v>
   <v>       0.38333333       0.21666667       0.01666667 </v>
   <v>       0.41666667       0.21666667       0.01666667 </v>
   <v>       0.45000000       0.21666667       0.01666667 </v>
   <v>       0.48333333       0.21666667       0.01666667 </v>
   <v>       0.25000000       0.25000000       0.01666667 </v>
   <v>       0.28333333       0.25000000       0.01666667 </v>
   <v>       0.31666667       0.25000000       0.01666667 </v>
   <v>       0.35000000       0.25000000       0.01666667 </v>
   <v>       0.38333333       0.25000000       0.01666667 </v>
   <v>       0.41666667       0.25000000       0.01666667 </v>
   <v>       0.45000000       0.25000000       0.01666667 </v>
   <v>       0.48333333       0.25000000       0.01666667 </v>
   <v>       0.28333333       0.28333333       0.01666667 </v>
   <v>       0.31666667       0.28333333       0.01666667 </v>
   <v>       0.35000000       0.28333333       0.01666667 </v>
   <v>       0.38333333       0.28333333       0.01666667 </v>
   <v>       0.41666667       0.28333333       0.01666667 </v>
   <v>       0.45000000       0.28333333       0.01666667 </v>
   <v>       0.48333333       0.28333333       0.01666667 </v>
   <v>       0.31666667       0.31666667       0.01666667 </v>
   <v>       0.35000000       0.31666667       0.01666667 </v>
   <v>       0.38333333       0.31666667       0.01666667 </v>
   <v>       0.41666667       0.31666667       0.01666667 </v>
   <v>       0.45000000       0.31666667       0.01666667 </v>
   <v>       0.48333333       0.31666667       0.01666667 </v>
   <v>       0.35000000       0.35000000       0.01666667 </v>
   <v>       0.38333333       0.35000000       0.01666667 </v>
   <v>       0.41666667       0.35000000       0.01666667 </v>
   <v>       0.45000000       0.35000000       0.01666667 </v>
   <v>       0.48333333       0.35000000       0.01666667 </v>
   <v>       0.38333333       0.38333333       0.01666667 </v>
   <v>       0.41666667       0.38333333       0.01666667 </v>
   <v>       0.45000000       0.38333333       0.01666667 </v>
   <v>       0.48333333       0.38333333       0.01666667 </v>
   <v>       0.41666667       0.41666667       0.01666667 </v>
   <v>       0.45000000       0.41666667       0.01666667 </v>
   <v>       0.48333333       0.41666667       0.01666667 </v>
   <v>       0.45000000       0.45000000       0.01666667 </v>
   <v>       0.48333333       0.45000000       0.01666667 </v>
   <v>       0.48333333       0.48333333       0.01666667 </v>
   <v>       0.05000000       0.05000000       0.05000000 </v>
   <v>       0.08333333       0.05000000       0.05000000 </v>
   <v>       0.11666667       0.05000000       0.05000000 </v>
   <v>       0.15000000       0.05000000       0.05000000 </v>
   <v>       0.18333333       0.05000000       0.05000000 </v>
   <v>       0.21666667       0.05000000       0.05000000 </v>
   <v>       0.25000000       0.05000000       0.05000000 </v>
   <v>       0.28333333       0.05000000       0.05000000 </v>
   <v>       0.31666667       0.05000000       0.05000000 </v>
   <v>       0.35000000       0.05000000       0.05000000 </v>
   <v>       0.38333333       0.05000000       0.05000000 </v>
   <v>       0.41666667       0.05000000       0.05000000 </v>
   <v>       0.45000000       0.05000000       0.05000000 </v>
   <v>       0.48333333       0.05000000       0.05000000 </v>
   <v>       0.08333333       0.08333333       0.05000000 </v>
   <v>       0.11666667       0.08333333       0.05000000 </v>
   <v>       0.15000000       0.08333333       0.05000000 </v>
   <v>       0.18333333       0.08333333       0.05000000 </v>
   <v>       0.21666667       0.08333333       0.05000000 </v>
   <v>       0.25000000       0.08333333       0.05000000 </v>
   <v>       0.28333333       0.08333333       0.05000000 </v>
   <v>       0.31666667       0.08333333       0.05000000 </v>
   <v>       0.35000000       0.08333333       0.05000000 </v>
   <v>       0.38333333       0.08333333       0.05000000 </v>
   <v>       0.41666667       0.08333333       0.05000000 </v>
   <v>       0.45000000       0.08333333       0.05000000 </v>
   <v>       0.48333333       0.08333333       0.05000000 </v>
   <v>       0.11666667       0.11666667       0.05000000 </v>
   <v>       0.15000000       0.11666667       0.05000000 </v>
   <v>       0.18333333       0.11666667       0.05000000 </v>
   <v>       0.21666667       0.11666667       0.05000000 </v>
   <v>       0.25000000       0.11666667       0.05000000 </v>
   <v>       0.28333333       0.11666667       0.05000000 </v>
   <v>       0.31666667       0.11666667       0.05000000 </v>
   <v>       0.35000000       0.11666667       0.05000000 </v>
   <v>       0.38333333       0.11666667       0.05000000 </v>
   <v>       0.41666667       0.11666667       0.05000000 </v>
   <v>       0.45000000       0.11666667       0.05000000 </v>
   <v>       0.48333333       0.11666667       0.05000000 </v>
   <v>       0.15000000       0.15000000       0.05000000 </v>
   <v>       0.18333333       0.15000000       0.05000000 </v>
   <v>       0.21666667       0.15000000       0.05000000 </v>
   <v>       0.25000000       0.15000000       0.05000000 </v>
   <v>       0.28333333       0.15000000       0.05000000 </v>
   <v>       0.31666667       0.15000000       0.05000000 </v>
   <v>       0.35000000       0.15000000       0.05000000 </v>
   <v>       0.38333333       0.15000000       0.05000000 </v>
   <v>       0.41666667       0.15000000       0.05000000 </v>
   <v>       0.45000000       0.15000000       0.05000000 </v>
   <v>       0.48333333       0.15000000       0.05000000 </v>
   <v>       0.18333333       0.18333333       0.05000000 </v>
   <v>       0.21666667       0.18333333       0.05000000 </v>
   <v>       0.25000000       0.18333333       0.05000000 </v>
   <v>       0.28333333       0.18333333       0.05000000 </v>
   <v>       0.31666667       0.18333333       0.05000000 </v>
   <v>       0.35000000       0.18333333       0.05000000 </v>
   <v>       0.38333333       0.18333333       0.05000000 </v>
   <v>       0.41666667       0.18333333       0.05000000 </v>
   <v>       0.45000000       0.18333333       0.05000000 </v>
   <v>       0.48333333       0.18333333       0.05000000 </v>
   <v>       0.21666667       0.21666667       0.05000000 </v>
   <v>       0.25000000       0.21666667       0.05000000 </v>
   <v>       0.28333333       0.21666667       0.05000000 </v>
   <v>       0.31666667       0.21666667       0.05000000 </v>
   <v>       0.35000000       0.21666667       0.05000000 </v>
   <v>       0.38333333       0.21666667       0.05000000 </v>
   <v>       0.41666667       0.21666667       0.05000000 </v>
   <v>       0.45000000       0.21666667       0.05000000 </v>
   <v>       0.48333333       0.21666667       0.05000000 </v>
   <v>       0.25000000       0.25000000       0.05000000 </v>
   <v>       0.28333333       0.25000000       0.05000000 </v>
   <v>       0.31666667       0.25000000       0.05000000 </v>
   <v>       0.35000000       0.25000000       0.05000000 </v>
   <v>       0.38333333       0.25000000       0.05000000 </v>
   <v>       0.41666667       0.25000000       0.05000000 </v>
   <v>       0.45000000       0.25000000       0.05000000 </v>
   <v>       0.48333333       0.25000000       0.05000000 </v>
   <v>       0.28333333       0.28333333       0.05000000 </v>
   <v>       0.31666667       0.28333333       0.05000000 </v>
   <v>       0.35000000       0.28333333       0.05000000 </v>
   <v>       0.38333333       0.28333333       0.05000000 </v>
   <v>       0.41666667       0.28333333       0.05000000 </v>
   <v>       0.45000000       0.28333333       0.05000000 </v>
   <v>       0.48333333       0.28333333       0.05000000 </v>
   <v>       0.31666667       0.31666667       0.05000000 </v>
   <v>       0.35000000       0.31666667       0.05000000 </v>
   <v>       0.38333333       0.31666667       0.05000000 </v>
   <v>       0.41666667       0.31666667       0.05000000 </v>
   <v>       0.45000000       0.31666667       0.05000000 </v>
   <v>       0.48333333       0.31666667       0.05000000 </v>
   <v>       0.35000000       0.35000000       0.05000000 </v>
   <v>       0.38333333       0.35000000       0.05000000 </v>
   <v>       0.41666667       0.35000000       0.05000000 </v>
   <v>       0.45000000       0.35000000       0.05000000 </v>
   <v>       0.48333333       0.35000000       0.05000000 </v>
   <v>       0.38333333       0.38333333       0.05000000 </v>
   <v>       0.41666667       0.38333333       0.05000000 </v>
   <v>       0.45000000       0.38333333       0.05000000 </v>
   <v>       0.48333333       0.38333333       0.05000000 </v>
   <v>       0.41666667       0.41666667       0.05000000 </v>
   <v>       0.45000000       0.41666667       0.05000000 </v>
   <v>       0.48333333       0.41666667       0.05000000 </v>
   <v>       0.45000000       0.45000000       0.05000000 </v>
   <v>       0.48333333       0.45000000       0.05000000 </v>
   <v>       0.48333333       0.48333333       0.05000000 </v>
   <v>       0.08333333       0.08333333       0.08333333 </v>
   <v>       0.11666667       0.08333333       0.08333333 </v>
   <v>       0.15000000       0.08333333       0.08333333 </v>
   <v>       0.18333333       0.08333333       0.08333333 </v>
   <v>       0.21666667       0.08333333       0.08333333 </v>
   <v>       0.25000000       0.08333333       0.08333333 </v>
   <v>       0.28333333       0.08333333       0.08333333 </v>
   <v>       0.31666667       0.08333333       0.08333333 </v>
   <v>       0.35000000       0.08333333       0.08333333 </v>
   <v>       0.38333333       0.08333333       0.08333333 </v>
   <v>       0.41666667       0.08333333       0.08333333 </v>
   <v>       0.45000000       0.08333333       0.08333333 </v>
   <v>       0.48333333       0.08333333       0.08333333 </v>
   <v>       0.11666667       0.11666667       0.08333333 </v>
   <v>       0.15000000       0.11666667       0.08333333 </v>
   <v>       0.18333333       0.11666667       0.08333333 </v>
   <v>       0.21666667       0.11666667       0.08333333 </v>
   <v>       0.25000000       0.11666667       0.08333333 </v>
   <v>       0.28333333       0.11666667       0.08333333 </v>
   <v>       0.31666667       0.11666667       0.08333333 </v>
   <v>       0.35000000       0.11666667       0.08333333 </v>
   <v>       0.38333333       0.11666667       0.08333333 </v>
   <v>       0.41666667       0.11666667       0.08333333 </v>
   <v>       0.45000000       0.11666667       0.08333333 </v>
   <v>       0.48333333       0.11666667       0.08333333 </v>
   <v>       0.15000000       0.15000000       0.08333333 </v>
   <v>       0.18333333       0.15000000       0.08333333 </v>
   <v>       0.21666667       0.15000000       0.08333333 </v>
   <v>       0.25000000       0.15000000       0.08333333 </v>
   <v>       0.28333333       0.15000000       0.08333333 </v>
   <v>       0.31666667       0.15000000       0.08333333 </v>
   <v>       0.35000000       0.15000000       0.08333333 </v>
   <v>       0.38333333       0.15000000       0.08333333 </v>
   <v>       0.41666667       0.15000000       0.08333333 </v>
   <v>       0.45000000       0.15000000       0.08333333 </v>
   <v>       0.48333333       0.15000000       0.08333333 </v>
   <v>       0.18333333       0.18333333       0.08333333 </v>
   <v>       0.21666667       0.18333333       0.08333333 </v>
   <v>       0.25000000       0.18333333       0.08333333 </v>
   <v>       0.28333333       0.18333333       0.08333333 </v>
   <v>       0.31666667       0.18333333       0.08333333 </v>
   <v>       0.35000000       0.18333333       0.08333333 </v>
   <v>       0.38333333       0.18333333       0.08333333 </v>
   <v>       0.41666667       0.18333333       0.08333333 </v>
   <v>       0.45000000       0.18333333       0.08333333 </v>
   <v>       0.48333333       0.18333333       0.08333333 </v>
   <v>       0.21666667       0.21666667       0.08333333 </v>
   <v>       0.25000000       0.21666667       0.08333333 </v>
   <v>       0.28333333       0.21666667       0.08333333 </v>
   <v>       0.31666667       0.21666667       0.08333333 </v>
   <v>       0.35000000       0.21666667       0.08333333 </v>
   <v>       0.38333333       0.21666667       0.08333333 </v>
   <v>       0.41666667       0.21666667       0.08333333 </v>
   <v>       0.45000000       0.21666667       0.08333333 </v>
   <v>       0.48333333       0.21666667       0.08333333 </v>
   <v>       0.25000000       0.25000000       0.08333333 </v>
   <v>       0.28333333       0.25000000       0.08333333 </v>
   <v>       0.31666667       0.25000000       0.08333333 </v>
   <v>       0.35000000       0.25000000       0.08333333 </v>
   <v>       0.38333333       0.25000000       0.08333333 </v>
   <v>       0.41666667       0.25000000       0.08333333 </v>
   <v>       0.45000000       0.25000000       0.08333333 </v>
   <v>       0.48333333       0.25000000       0.08333333 </v>
   <v>       0.28333333       0.28333333       0.08333333 </v>
   <v>       0.31666667       0.28333333       0.08333333 </v>
   <v>       0.35000000       0.28333333       0.08333333 </v>
   <v>       0.38333333       0.28333333       0.08333333 </v>
   <v>       0.41666667       0.28333333       0.08333333 </v>
   <v>       0.45000000       0.28333333       0.08333333 </v>
   <v>       0.48333333       0.28333333       0.08333333 </v>
   <v>       0.31666667       0.31666667       0.08333333 </v>
   <v>       0.35000000       0.31666667       0.08333333 </v>
   <v>       0.38333333       0.31666667       0.08333333 </v>
   <v>       0.41666667       0.31666667       0.08333333 </v>
   <v>       0.45000000       0.31666667       0.08333333 </v>
   <v>       0.48333333       0.31666667       0.08333333 </v>
   <v>       0.35000000       0.35000000       0.08333333 </v>
   <v>       0.38333333       0.35000000       0.08333333 </v>
   <v>       0.41666667       0.35000000       0.08333333 </v>
   <v>       0.45000000       0.35000000       0.08333333 </v>
   <v>       0.48333333       0.35000000       0.08333333 </v>
   <v>       0.38333333       0.38333333       0.08333333 </v>
   <v>       0.41666667       0.38333333       0.08333333 </v>
   <v>       0.45000000       0.38333333       0.08333333 </v>
   <v>       0.48333333       0.38333333       0.08333333 </v>
   <v>       0.41666667       0.41666667       0.08333333 </v>
   <v>       0.45000000       0.41666667       0.08333333 </v>
   <v>       0.48333333       0.41666667       0.08333333 </v>
   <v>       0.45000000       0.45000000       0.08333333 </v>
   <v>       0.48333333       0.45000000       0.08333333 </v>
   <v>       0.48333333       0.48333333       0.08333333 </v>
   <v>       0.11666667       0.11666667       0.11666667 </v>
   <v>       0.15000000       0.11666667       0.11666667 </v>
   <v>       0.18333333       0.11666667       0.11666667 </v>
   <v>       0.21666667       0.11666667       0.11666667 </v>
   <v>       0.25000000       0.11666667       0.11666667 </v>
   <v>       0.28333333       0.11666667       0.11666667 </v>
   <v>       0.31666667       0.11666667       0.11666667 </v>
   <v>       0.35000000       0.11666667       0.11666667 </v>
   <v>       0.38333333       0.11666667       0.11666667 </v>
   <v>       0.41666667       0.11666667       0.11666667 </v>
   <v>       0.45000000       0.11666667       0.11666667 </v>
   <v>       0.48333333       0.11666667       0.11666667 </v>
   <v>       0.15000000       0.15000000       0.11666667 </v>
   <v>       0.18333333       0.15000000       0.11666667 </v>
   <v>       0.21666667       0.15000000       0.11666667 </v>
   <v>       0.25000000       0.15000000       0.11666667 </v>
   <v>       0.28333333       0.15000000       0.11666667 </v>
   <v>       0.31666667       0.15000000       0.11666667 </v>
   <v>       0.35000000       0.15000000       0.11666667 </v>
   <v>       0.38333333       0.15000000       0.11666667 </v>
   <v>       0.41666667       0.15000000       0.11666667 </v>
   <v>       0.45000000       0.15000000       0.11666667 </v>
   <v>       0.48333333       0.15000000       0.11666667 </v>
   <v>       0.18333333       0.18333333       0.11666667 </v>
   <v>       0.21666667       0.18333333       0.11666667 </v>
   <v>       0.25000000       0.18333333       0.11666667 </v>
   <v>       0.28333333       0.18333333       0.11666667 </v>
   <v>       0.31666667       0.18333333       0.11666667 </v>
   <v>       0.35000000       0.18333333       0.11666667 </v>
   <v>       0.38333333       0.18333333       0.11666667 </v>
   <v>       0.41666667       0.18333333       0.11666667 </v>
   <v>       0.45000000       0.18333333       0.11666667 </v>
   <v>       0.48333333       0.18333333       0.11666667 </v>
   <v>       0.21666667       0.21666667       0.11666667 </v>
   <v>       0.25000000       0.21666667       0.11666667 </v>
   <v>       0.28333333       0.21666667       0.11666667 </v>
   <v>       0.31666667       0.21666667       0.11666667 </v>
   <v>       0.35000000       0.21666667       0.11666667 </v>
   <v>       0.38333333       0.21666667       0.11666667 </v>
   <v>       0.41666667       0.21666667       0.11666667 </v>
   <v>       0.45000000       0.21666667       0.11666667 </v>
   <v>       0.48333333       0.21666667       0.11666667 </v>
   <v>       0.25000000       0.25000000       0.11666667 </v>
   <v>       0.28333333       0.25000000       0.11666667 </v>
   <v>       0.31666667       0.25000000       0.11666667 </v>
   <v>       0.35000000       0.25000000       0.11666667 </v>
   <v>       0.38333333       0.25000000       0.11666667 </v>
   <v>       0.41666667       0.25000000       0.11666667 </v>
   <v>       0.45000000       0.25000000       0.11666667 </v>
   <v>       0.48333333       0.25000000       0.11666667 </v>
   <v>       0.28333333       0.28333333       0.11666667 </v>
   <v>       0.31666667       0.28333333       0.11666667 </v>
   <v>       0.35000000       0.28333333       0.11666667 </v>
   <v>       0.38333333       0.28333333       0.11666667 </v>
   <v>       0.41666667       0.28333333       0.11666667 </v>
   <v>       0.45000000       0.28333333       0.11666667 </v>
   <v>       0.48333333       0.28333333       0.11666667 </v>
   <v>       0.31666667       0.31666667       0.11666667 </v>
   <v>       0.35000000       0.31666667       0.11666667 </v>
   <v>       0.38333333       0.31666667       0.11666667 </v>
   <v>       0.41666667       0.31666667       0.11666667 </v>
   <v>       0.45000000       0.31666667       0.11666667 </v>
   <v>       0.48333333       0.31666667       0.11666667 </v>
   <v>       0.35000000       0.35000000       0.11666667 </v>
   <v>       0.38333333       0.35000000       0.11666667 </v>
   <v>       0.41666667       0.35000000       0.11666667 </v>
   <v>       0.45000000       0.35000000       0.11666667 </v>
   <v>       0.48333333       0.35000000       0.11666667 </v>
   <v>       0.38333333       0.38333333       0.11666667 </v>
   <v>       0.41666667       0.38333333       0.11666667 </v>
   <v>       0.45000000       0.38333333       0.11666667 </v>
   <v>       0.48333333       0.38333333       0.11666667 </v>
   <v>       0.41666667       0.41666667       0.11666667 </v>
   <v>       0.45000000       0.41666667       0.11666667 </v>
   <v>       0.48333333       0.41666667       0.11666667 </v>
   <v>       0.45000000       0.45000000       0.11666667 </v>
   <v>       0.48333333       0.45000000       0.11666667 </v>
   <v>       0.48333333       0.48333333       0.11666667 </v>
   <v>       0.15000000       0.15000000       0.15000000 </v>
   <v>       0.18333333       0.15000000       0.15000000 </v>
   <v>       0.21666667       0.15000000       0.15000000 </v>
   <v>       0.25000000       0.15000000       0.15000000 </v>
   <v>       0.28333333       0.15000000       0.15000000 </v>
   <v>       0.31666667       0.15000000       0.15000000 </v>
   <v>       0.35000000       0.15000000       0.15000000 </v>
   <v>       0.38333333       0.15000000       0.15000000 </v>
   <v>       0.41666667       0.15000000       0.15000000 </v>
   <v>       0.45000000       0.15000000       0.15000000 </v>
   <v>       0.48333333       0.15000000       0.15000000 </v>
   <v>       0.18333333       0.18333333       0.15000000 </v>
   <v>       0.21666667       0.18333333       0.15000000 </v>
   <v>       0.25000000       0.18333333       0.15000000 </v>
   <v>       0.28333333       0.18333333       0.15000000 </v>
   <v>       0.31666667       0.18333333       0.15000000 </v>
   <v>       0.35000000       0.18333333       0.15000000 </v>
   <v>       0.38333333       0.18333333       0.15000000 </v>
   <v>       0.41666667       0.18333333       0.15000000 </v>
   <v>       0.45000000       0.18333333       0.15000000 </v>
   <v>       0.48333333       0.18333333       0.15000000 </v>
   <v>       0.21666667       0.21666667       0.15000000 </v>
   <v>       0.25000000       0.21666667       0.15000000 </v>
   <v>       0.28333333       0.21666667       0.15000000 </v>
   <v>       0.31666667       0.21666667       0.15000000 </v>
   <v>       0.35000000       0.21666667       0.15000000 </v>
   <v>       0.38333333       0.21666667       0.15000000 </v>
   <v>       0.41666667       0.21666667       0.15000000 </v>
   <v>       0.45000000       0.21666667       0.15000000 </v>
   <v>       0.48333333       0.21666667       0.15000000 </v>
   <v>       0.25000000       0.25000000       0.15000000 </v>
   <v>       0.28333333       0.25000000       0.15000000 </v>
   <v>       0.31666667       0.25000000       0.15000000 </v>
   <v>       0.35000000       0.25000000       0.15000000 </v>
   <v>       0.38333333       0.25000000       0.15000000 </v>
   <v>       0.41666667       0.25000000       0.15000000 </v>
   <v>       0.45000000       0.25000000       0.15000000 </v>
   <v>       0.48333333       0.25000000       0.15000000 </v>
   <v>       0.28333333       0.28333333       0.15000000 </v>
   <v>       0.31666667       0.28333333       0.15000000 </v>
   <v>       0.35000000       0.28333333       0.15000000 </v>
   <v>       0.38333333       0.28333333       0.15000000 </v>
   <v>       0.41666667       0.28333333       0.15000000 </v>
   <v>       0.45000000       0.28333333       0.15000000 </v>
   <v>       0.48333333       0.28333333       0.15000000 </v>
   <v>       0.31666667       0.31666667       0.15000000 </v>
   <v>       0.35000000       0.31666667       0.15000000 </v>
   <v>       0.38333333       0.31666667       0.15000000 </v>
   <v>       0.41666667       0.31666667       0.15000000 </v>
   <v>       0.45000000       0.31666667       0.15000000 </v>
   <v>       0.48333333       0.31666667       0.15000000 </v>
   <v>       0.35000000       0.35000000       0.15000000 </v>
   <v>       0.38333333       0.35000000       0.15000000 </v>
   <v>       0.41666667       0.35000000       0.15000000 </v>
   <v>       0.45000000       0.35000000       0.15000000 </v>
   <v>       0.48333333       0.35000000       0.15000000 </v>
   <v>       0.38333333       0.38333333       0.15000000 </v>
   <v>       0.41666667       0.38333333       0.15000000 </v>
   <v>       0.45000000       0.38333333       0.15000000 </v>
   <v>       0.48333333       0.38333333       0.15000000 </v>
   <v>       0.41666667       0.41666667       0.15000000 </v>
   <v>       0.45000000       0.41666667       0.15000000 </v>
   <v>       0.48333333       0.41666667       0.15000000 </v>
   <v>       0.45000000       0.45000000       0.15000000 </v>
   <v>       0.48333333       0.45000000       0.15000000 </v>
   <v>       0.48333333       0.48333333       0.15000000 </v>
   <v>       0.18333333       0.18333333       0.18333333 </v>
   <v>       0.21666667       0.18333333       0.18333333 </v>
   <v>       0.25000000       0.18333333       0.18333333 </v>
   <v>       0.28333333       0.18333333       0.18333333 </v>
   <v>       0.31666667       0.18333333       0.18333333 </v>
   <v>       0.35000000       0.18333333       0.18333333 </v>
   <v>       0.38333333       0.18333333       0.18333333 </v>
   <v>       0.41666667       0.18333333       0.18333333 </v>
   <v>       0.45000000       0.18333333       0.18333333 </v>
   <v>       0.48333333       0.18333333       0.18333333 </v>
   <v>       0.21666667       0.21666667       0.18333333 </v>
   <v>       0.25000000       0.21666667       0.18333333 </v>
   <v>       0.28333333       0.21666667       0.18333333 </v>
   <v>       0.31666667       0.21666667       0.18333333 </v>
   <v>       0.35000000       0.21666667       0.18333333 </v>
   <v>       0.38333333       0.21666667       0.18333333 </v>
   <v>       0.41666667       0.21666667       0.18333333 </v>
   <v>       0.45000000       0.21666667       0.18333333 </v>
   <v>       0.48333333       0.21666667       0.18333333 </v>
   <v>       0.25000000       0.25000000       0.18333333 </v>
   <v>       0.28333333       0.25000000       0.18333333 </v>
   <v>       0.31666667       0.25000000       0.18333333 </v>
   <v>       0.35000000       0.25000000       0.18333333 </v>
   <v>       0.38333333       0.25000000       0.18333333 </v>
   <v>       0.41666667       0.25000000       0.18333333 </v>
   <v>       0.45000000       0.25000000       0.18333333 </v>
   <v>       0.48333333       0.25000000       0.18333333 </v>
   <v>       0.28333333       0.28333333       0.18333333 </v>
   <v>       0.31666667       0.28333333       0.18333333 </v>
   <v>       0.35000000       0.28333333       0.18333333 </v>
   <v>       0.38333333       0.28333333       0.18333333 </v>
   <v>       0.41666667       0.28333333       0.18333333 </v>
   <v>       0.45000000       0.28333333       0.18333333 </v>
   <v>       0.48333333       0.28333333       0.18333333 </v>
   <v>       0.31666667       0.31666667       0.18333333 </v>
   <v>       0.35000000       0.31666667       0.18333333 </v>
   <v>       0.38333333       0.31666667       0.18333333 </v>
   <v>       0.41666667       0.31666667       0.18333333 </v>
   <v>       0.45000000       0.31666667       0.18333333 </v>
   <v>       0.48333333       0.31666667       0.18333333 </v>
   <v>       0.35000000       0.35000000       0.18333333 </v>
   <v>       0.38333333       0.35000000       0.18333333 </v>
   <v>       0.41666667       0.35000000       0.18333333 </v>
   <v>       0.45000000       0.35000000       0.18333333 </v>
   <v>       0.48333333       0.35000000       0.18333333 </v>
   <v>       0.38333333       0.38333333       0.18333333 </v>
   <v>       0.41666667       0.38333333       0.18333333 </v>
   <v>       0.45000000       0.38333333       0.18333333 </v>
   <v>       0.48333333       0.38333333       0.18333333 </v>
   <v>       0.41666667       0.41666667       0.18333333 </v>
   <v>       0.45000000       0.41666667       0.18333333 </v>
   <v>       0.48333333       0.41666667       0.18333333 </v>
   <v>       0.45000000       0.45000000       0.18333333 </v>
   <v>       0.48333333       0.45000000       0.18333333 </v>
   <v>       0.48333333       0.48333333       0.18333333 </v>
   <v>       0.21666667       0.21666667       0.21666667 </v>
   <v>       0.25000000       0.21666667       0.21666667 </v>
   <v>       0.28333333       0.21666667       0.21666667 </v>
   <v>       0.31666667       0.21666667       0.21666667 </v>
   <v>       0.35000000       0.21666667       0.21666667 </v>
   <v>       0.38333333       0.21666667       0.21666667 </v>
   <v>       0.41666667       0.21666667       0.21666667 </v>
   <v>       0.45000000       0.21666667       0.21666667 </v>
   <v>       0.48333333       0.21666667       0.21666667 </v>
   <v>       0.25000000       0.25000000       0.21666667 </v>
   <v>       0.28333333       0.25000000       0.21666667 </v>
   <v>       0.31666667       0.25000000       0.21666667 </v>
   <v>       0.35000000       0.25000000       0.21666667 </v>
   <v>       0.38333333       0.25000000       0.21666667 </v>
   <v>       0.41666667       0.25000000       0.21666667 </v>
   <v>       0.45000000       0.25000000       0.21666667 </v>
   <v>       0.48333333       0.25000000       0.21666667 </v>
   <v>       0.28333333       0.28333333       0.21666667 </v>
   <v>       0.31666667       0.28333333       0.21666667 </v>
   <v>       0.35000000       0.28333333       0.21666667 </v>
   <v>       0.38333333       0.28333333       0.21666667 </v>
   <v>       0.41666667       0.28333333       0.21666667 </v>
   <v>       0.45000000       0.28333333       0.21666667 </v>
   <v>       0.48333333       0.28333333       0.21666667 </v>
   <v>       0.31666667       0.31666667       0.21666667 </v>
   <v>       0.35000000       0.31666667       0.21666667 </v>
   <v>       0.38333333       0.31666667       0.21666667 </v>
   <v>       0.41666667       0.31666667       0.21666667 </v>
   <v>       0.45000000       0.31666667       0.21666667 </v>
   <v>       0.48333333       0.31666667       0.21666667 </v>
   <v>       0.35000000       0.35000000       0.21666667 </v>
   <v>       0.38333333       0.35000000       0.21666667 </v>
   <v>       0.41666667       0.35000000       0.21666667 </v>
   <v>       0.45000000       0.35000000       0.21666667 </v>
   <v>       0.48333333       0.35000000       0.21666667 </v>
   <v>       0.38333333       0.38333333       0.21666667 </v>
   <v>       0.41666667       0.38333333       0.21666667 </v>
   <v>       0.45000000       0.38333333       0.21666667 </v>
   <v>       0.48333333       0.38333333       0.21666667 </v>
   <v>       0.41666667       0.41666667       0.21666667 </v>
   <v>       0.45000000       0.41666667       0.21666667 </v>
   <v>       0.48333333       0.41666667       0.21666667 </v>
   <v>       0.45000000       0.45000000       0.21666667 </v>
   <v>       0.48333333       0.45000000       0.21666667 </v>
   <v>       0.48333333       0.48333333       0.21666667 </v>
   <v>       0.25000000       0.25000000       0.25000000 </v>
   <v>       0.28333333       0.25000000       0.25000000 </v>
   <v>       0.31666667       0.25000000       0.25000000 </v>
   <v>       0.35000000       0.25000000       0.25000000 </v>
   <v>       0.38333333       0.25000000       0.25000000 </v>
   <v>       0.41666667       0.25000000       0.25000000 </v>
   <v>       0.45000000       0.25000000       0.25000000 </v>
   <v>       0.48333333       0.25000000       0.25000000 </v>
   <v>       0.28333333       0.28333333       0.25000000 </v>
   <v>       0.31666667       0.28333333       0.25000000 </v>
   <v>       0.35000000       0.28333333       0.25000000 </v>
   <v>       0.38333333       0.28333333       0.25000000 </v>
   <v>       0.41666667       0.28333333       0.25000000 </v>
   <v>       0.45000000       0.28333333       0.25000000 </v>
   <v>       0.48333333       0.28333333       0.25000000 </v>
   <v>       0.31666667       0.31666667       0.25000000 </v>
   <v>       0.35000000       0.31666667       0.25000000 </v>
   <v>       0.38333333       0.31666667       0.25000000 </v>
   <v>       0.41666667       0.31666667       0.25000000 </v>
   <v>       0.45000000       0.31666667       0.25000000 </v>
   <v>       0.48333333       0.31666667       0.25000000 </v>
   <v>       0.35000000       0.35000000       0.25000000 </v>
   <v>       0.38333333       0.35000000       0.25000000 </v>
   <v>       0.41666667       0.35000000       0.25000000 </v>
   <v>       0.45000000       0.35000000       0.25000000 </v>
   <v>       0.48333333       0.35000000       0.25000000 </v>
   <v>       0.38333333       0.38333333       0.25000000 </v>
   <v>       0.41666667       0.38333333       0.25000000 </v>
   <v>       0.45000000       0.38333333       0.25000000 </v>
   <v>       0.48333333       0.38333333       0.25000000 </v>
   <v>       0.41666667       0.41666667       0.25000000 </v>
   <v>       0.45000000       0.41666667       0.25000000 </v>
   <v>       0.48333333       0.41666667       0.25000000 </v>
   <v>       0.45000000       0.45000000       0.25000000 </v>
   <v>       0.48333333       0.45000000       0.25000000 </v>
   <v>       0.48333333       0.48333333       0.25000000 </v>
   <v>       0.28333333       0.28333333       0.28333333 </v>
   <v>       0.31666667       0.28333333       0.28333333 </v>
   <v>       0.35000000       0.28333333       0.28333333 </v>
   <v>       0.38333333       0.28333333       0.28333333 </v>
   <v>       0.41666667       0.28333333       0.28333333 </v>
   <v>       0.45000000       0.28333333       0.28333333 </v>
   <v>       0.48333333       0.28333333       0.28333333 </v>
   <v>       0.31666667       0.31666667       0.28333333 </v>
   <v>       0.35000000       0.31666667       0.28333333 </v>
   <v>       0.38333333       0.31666667       0.28333333 </v>
   <v>       0.41666667       0.31666667       0.28333333 </v>
   <v>       0.45000000       0.31666667       0.28333333 </v>
   <v>       0.48333333       0.31666667       0.28333333 </v>
   <v>       0.35000000       0.35000000       0.28333333 </v>
   <v>       0.38333333       0.35000000       0.28333333 </v>
   <v>       0.41666667       0.35000000       0.28333333 </v>
   <v>       0.45000000       0.35000000       0.28333333 </v>
   <v>       0.48333333       0.35000000       0.28333333 </v>
   <v>       0.38333333       0.38333333       0.28333333 </v>
   <v>       0.41666667       0.38333333       0.28333333 </v>
   <v>       0.45000000       0.38333333       0.28333333 </v>
   <v>       0.48333333       0.38333333       0.28333333 </v>
   <v>       0.41666667       0.41666667       0.28333333 </v>
   <v>       0.45000000       0.41666667       0.28333333 </v>
   <v>       0.48333333       0.41666667       0.28333333 </v>
   <v>       0.45000000       0.45000000       0.28333333 </v>
   <v>       0.48333333       0.45000000       0.28333333 </v>
   <v>       0.48333333       0.48333333       0.28333333 </v>
   <v>       0.31666667       0.31666667       0.31666667 </v>
   <v>       0.35000000       0.31666667       0.31666667 </v>
   <v>       0.38333333       0.31666667       0.31666667 </v>
   <v>       0.41666667       0.31666667       0.31666667 </v>
   <v>       0.45000000       0.31666667       0.31666667 </v>
   <v>       0.48333333       0.31666667       0.31666667 </v>
   <v>       0.35000000       0.35000000       0.31666667 </v>
   <v>       0.38333333       0.35000000       0.31666667 </v>
   <v>       0.41666667       0.35000000       0.31666667 </v>
   <v>       0.45000000       0.35000000       0.31666667 </v>
   <v>       0.48333333       0.35000000       0.31666667 </v>
   <v>       0.38333333       0.38333333       0.31666667 </v>
   <v>       0.41666667       0.38333333       0.31666667 </v>
   <v>       0.45000000       0.38333333       0.31666667 </v>
   <v>       0.48333333       0.38333333       0.31666667 </v>
   <v>       0.41666667       0.41666667       0.31666667 </v>
   <v>       0.45000000       0.41666667       0.31666667 </v>
   <v>       0.48333333       0.41666667       0.31666667 </v>
   <v>       0.45000000       0.45000000       0.31666667 </v>
   <v>       0.48333333       0.45000000       0.31666667 </v>
   <v>       0.48333333       0.48333333       0.31666667 </v>
   <v>       0.35000000       0.35000000       0.35000000 </v>
   <v>       0.38333333       0.35000000       0.35000000 </v>
   <v>       0.41666667       0.35000000       0.35000000 </v>
   <v>       0.45000000       0.35000000       0.35000000 </v>
   <v>       0.48333333       0.35000000       0.35000000 </v>
   <v>       0.38333333       0.38333333       0.35000000 </v>
   <v>       0.41666667       0.38333333       0.35000000 </v>
   <v>       0.45000000       0.38333333       0.35000000 </v>
   <v>       0.48333333       0.38333333       0.35000000 </v>
   <v>       0.41666667       0.41666667       0.35000000 </v>
   <v>       0.45000000       0.41666667       0.35000000 </v>
   <v>       0.48333333       0.41666667       0.35000000 </v>
   <v>       0.45000000       0.45000000       0.35000000 </v>
   <v>       0.48333333       0.45000000       0.35000000 </v>
   <v>       0.48333333       0.48333333       0.35000000 </v>
   <v>       0.38333333       0.38333333       0.38333333 </v>
   <v>       0.41666667       0.38333333       0.38333333 </v>
   <v>       0.45000000       0.38333333       0.38333333 </v>
   <v>       0.48333333       0.38333333       0.38333333 </v>
   <v>       0.41666667       0.41666667       0.38333333 </v>
   <v>       0.45000000       0.41666667       0.38333333 </v>
   <v>       0.48333333       0.41666667       0.38333333 </v>
   <v>       0.45000000       0.45000000       0.38333333 </v>
   <v>       0.48333333       0.45000000       0.38333333 </v>
   <v>       0.48333333       0.48333333       0.38333333 </v>
   <v>       0.41666667       0.41666667       0.41666667 </v>
   <v>       0.45000000       0.41666667       0.41666667 </v>
   <v>       0.48333333       0.41666667       0.41666667 </v>
   <v>       0.45000000       0.45000000       0.41666667 </v>
   <v>       0.48333333       0.45000000       0.41666667 </v>
   <v>       0.48333333       0.48333333       0.41666667 </v>
   <v>       0.45000000       0.45000000       0.45000000 </v>
   <v>       0.48333333       0.45000000       0.45000000 </v>
   <v>       0.48333333       0.48333333       0.45000000 </v>
   <v>       0.48333333       0.48333333       0.48333333 </v>
  </varray>
  <varray name="weights" >
   <v>       0.00029630 </v>
   <v>       0.00088889 </v>
   <v>       0.00088889 </v>
   <v>       0.00088889 </v>
   <v>       0.00088889 </v>
   <v>       0.00088889 </v>
   <v>       0.00088889 </v>
   <v>       0.00088889 </v>
   <v>       0.00088889 </v>
   <v>       0.00088889 </v>
   <v>       0.00088889 </v>
   <v>       0.00088889 </v>
   <v>       0.00088889 </v>
   <v>       0.00088889 </v>
   <v>       0.00088889 </v>
   <v>       0.00088889 </v>
   <v>       0.00177778 </v>
   <v>       0.00177778 </v>
   <v>       0.00177778 </v>
   <v>       0.00177778 </v>
   <v>       0.00177778 </v>
   <v>       0.00177778 </v>
   <v>       0.00177778 </v>
   <v>       0.00177778 </v>
   <v>       0.00177778 </v>
   <v>       0.00177778 </v>
   <v>       0.00177778 </v>
   <v>       0.00177778 </v>
   <v>       0.00177778 </v>
   <v>       0.00088889 </v>
   <v>       0.00177778 </v>
   <v>       0.00177778 </v>
   <v>       0.00177778 </v>
   <v>       0.00177778 </v>
   <v>       0.00177778 </v>
   <v>       0.00177778 </v>
   <v>       0.00177778 </v>
   <v>       0.00177778 </v>
   <v>       0.00177778 </v>
   <v>       0.00177778 </v>
   <v>       0.00177778 </v>
   <v>       0.00177778 </v>
   <v>       0.00088889 </v>
   <v>       0.00177778 </v>
   <v>       0.00177778 </v>
   <v>       0.00177778 </v>
   <v>       0.00177778 </v>
   <v>       0.00177778 </v>
   <v>       0.00177778 </v>
   <v>       0.00177778 </v>
   <v>       0.00177778 </v>
   <v>       0.00177778 </v>
   <v>       0.00177778 </v>
   <v>       0.00177778 </v>
   <v>       0.00088889 </v>
   <v>       0.00177778 </v>
   <v>       0.00177778 </v>
   <v>       0.00177778 </v>
   <v>       0.00177778 </v>
   <v>       0.00177778 </v>
   <v>       0.00177778 </v>
   <v>       0.00177778 </v>
   <v>       0.00177778 </v>
   <v>       0.00177778 </v>
   <v>       0.00177778 </v>
   <v>       0.00088889 </v>
   <v>       0.00177778 </v>
   <v>       0.00177778 </v>
   <v>       0.00177778 </v>
   <v>       0.00177778 </v>
   <v>       0.00177778 </v>
   <v>       0.00177778 </v>
   <v>       0.00177778 </v>
   <v>       0.00177778 </v>
   <v>       0.00177778 </v>
   <v>       0.00088889 </v>
   <v>       0.00177778 </v>
   <v>       0.00177778 </v>
   <v>       0.00177778 </v>
   <v>       0.00177778 </v>
   <v>       0.00177778 </v>
   <v>       0.00177778 </v>
   <v>       0.00177778 </v>
   <v>       0.00177778 </v>
   <v>       0.00088889 </v>
   <v>       0.00177778 </v>
   <v>       0.00177778 </v>
   <v>       0.00177778 </v>
   <v>       0.00177778 </v>
   <v>       0.00177778 </v>
   <v>       0.00177778 </v>
   <v>       0.00177778 </v>
   <v>       0.00088889 </v>
   <v>       0.00177778 </v>
   <v>       0.00177778 </v>
   <v>       0.00177778 </v>
   <v>       0.00177778 </v>
   <v>       0.00177778 </v>
   <v>       0.00177778 </v>
   <v>       0.00088889 </v>
   <v>       0.00177778 </v>
   <v>       0.00177778 </v>
   <v>       0.00177778 </v>
   <v>       0.00177778 </v>
   <v>       0.00177778 </v>
   <v>       0.00088889 </v>
   <v>       0.00177778 </v>
   <v>       0.00177778 </v>
   <v>       0.00177778 </v>
   <v>       0.00177778 </v>
   <v>       0.00088889 </v>
   <v>       0.00177778 </v>
   <v>       0.00177778 </v>
   <v>       0.00177778 </v>
   <v>       0.00088889 </v>
   <v>       0.00177778 </v>
   <v>       0.00177778 </v>
   <v>       0.00088889 </v>
   <v>       0.00177778 </v>
   <v>       0.00088889 </v>
   <v>       0.00029630 </v>
   <v>       0.00088889 </v>
   <v>       0.00088889 </v>
   <v>       0.00088889 </v>
   <v>       0.00088889 </v>
   <v>       0.00088889 </v>
   <v>       0.00088889 </v>
   <v>       0.00088889 </v>
   <v>       0.00088889 </v>
   <v>       0.00088889 </v>
   <v>       0.00088889 </v>
   <v>       0.00088889 </v>
   <v>       0.00088889 </v>
   <v>       0.00088889 </v>
   <v>       0.00088889 </v>
   <v>       0.00177778 </v>
   <v>       0.00177778 </v>
   <v>       0.00177778 </v>
   <v>       0.00177778 </v>
   <v>       0.00177778 </v>
   <v>       0.00177778 </v>
   <v>       0.00177778 </v>
   <v>       0.00177778 </v>
   <v>       0.00177778 </v>
   <v>       0.00177778 </v>
   <v>       0.00177778 </v>
   <v>       0.00177778 </v>
   <v>       0.00088889 </v>
   <v>       0.00177778 </v>
   <v>       0.00177778 </v>
   <v>       0.00177778 </v>
   <v>       0.00177778 </v>
   <v>       0.00177778 </v>
   <v>       0.00177778 </v>
   <v>       0.00177778 </v>
   <v>       0.00177778 </v>
   <v>       0.00177778 </v>
   <v>       0.00177778 </v>
   <v>       0.00177778 </v>
   <v>       0.00088889 </v>
   <v>       0.00177778 </v>
   <v>       0.00177778 </v>
   <v>       0.00177778 </v>
   <v>       0.00177778 </v>
   <v>       0.00177778 </v>
   <v>       0.00177778 </v>
   <v>       0.00177778 </v>
   <v>       0.00177778 </v>
   <v>       0.00177778 </v>
   <v>       0.00177778 </v>
   <v>       0.00088889 </v>
   <v>       0.00177778 </v>
   <v>       0.00177778 </v>
   <v>       0.00177778 </v>
   <v>       0.00177778 </v>
   <v>       0.00177778 </v>
   <v>       0.00177778 </v>
   <v>       0.00177778 </v>
   <v>       0.00177778 </v>
   <v>       0.00177778 </v>
   <v>       0.00088889 </v>
   <v>       0.00177778 </v>
   <v>       0.00177778 </v>
   <v>       0.00177778 </v>
   <v>       0.00177778 </v>
   <v>       0.00177778 </v>
   <v>       0.00177778 </v>
   <v>       0.00177778 </v>
   <v>       0.00177778 </v>
   <v>       0.00088889 </v>
   <v>       0.00177778 </v>
   <v>       0.00177778 </v>
   <v>       0.00177778 </v>
   <v>       0.00177778 </v>
   <v>       0.00177778 </v>
   <v>       0.00177778 </v>
   <v>       0.00177778 </v>
   <v>       0.00088889 </v>
   <v>       0.00177778 </v>
   <v>       0.00177778 </v>
   <v>       0.00177778 </v>
   <v>       0.00177778 </v>
   <v>       0.00177778 </v>
   <v>       0.00177778 </v>
   <v>       0.00088889 </v>
   <v>       0.00177778 </v>
   <v>       0.00177778 </v>
   <v>       0.00177778 </v>
   <v>       0.00177778 </v>
   <v>       0.00177778 </v>
   <v>       0.00088889 </v>
   <v>       0.00177778 </v>
   <v>       0.00177778 </v>
   <v>       0.00177778 </v>
   <v>       0.00177778 </v>
   <v>       0.00088889 </v>
   <v>       0.00177778 </v>
   <v>       0.00177778 </v>
   <v>       0.00177778 </v>
   <v>       0.00088889 </v>
   <v>       0.00177778 </v>
   <v>       0.00177778 </v>
   <v>       0.00088889 </v>
   <v>       0.00177778 </v>
   <v>       0.00088889 </v>
   <v>       0.00029630 </v>
   <v>       0.00088889 </v>
   <v>       0.00088889 </v>
   <v>       0.00088889 </v>
   <v>       0.00088889 </v>
   <v>       0.00088889 </v>
   <v>       0.00088889 </v>
   <v>       0.00088889 </v>
   <v>       0.00088889 </v>
   <v>       0.00088889 </v>
   <v>       0.00088889 </v>
   <v>       0.00088889 </v>
   <v>       0.00088889 </v>
   <v>       0.00088889 </v>
   <v>       0.00177778 </v>
   <v>       0.00177778 </v>
   <v>       0.00177778 </v>
   <v>       0.00177778 </v>
   <v>       0.00177778 </v>
   <v>       0.00177778 </v>
   <v>       0.00177778 </v>
   <v>       0.00177778 </v>
   <v>       0.00177778 </v>
   <v>       0.00177778 </v>
   <v>       0.00177778 </v>
   <v>       0.00088889 </v>
   <v>       0.00177778 </v>
   <v>       0.00177778 </v>
   <v>       0.00177778 </v>
   <v>       0.00177778 </v>
   <v>       0.00177778 </v>
   <v>       0.00177778 </v>
   <v>       0.00177778 </v>
   <v>       0.00177778 </v>
   <v>       0.00177778 </v>
   <v>       0.00177778 </v>
   <v>       0.00088889 </v>
   <v>       0.00177778 </v>
   <v>       0.00177778 </v>
   <v>       0.00177778 </v>
   <v>       0.00177778 </v>
   <v>       0.00177778 </v>
   <v>       0.00177778 </v>
   <v>       0.00177778 </v>
   <v>       0.00177778 </v>
   <v>       0.00177778 </v>
   <v>       0.00088889 </v>
   <v>       0.00177778 </v>
   <v>       0.00177778 </v>
   <v>       0.00177778 </v>
   <v>       0.00177778 </v>
   <v>       0.00177778 </v>
   <v>       0.00177778 </v>
   <v>       0.00177778 </v>
   <v>       0.00177778 </v>
   <v>       0.00088889 </v>
   <v>       0.00177778 </v>
   <v>       0.00177778 </v>
   <v>       0.00177778 </v>
   <v>       0.00177778 </v>
   <v>       0.00177778 </v>
   <v>       0.00177778 </v>
   <v>       0.00177778 </v>
   <v>       0.00088889 </v>
   <v>       0.00177778 </v>
   <v>       0.00177778 </v>
   <v>       0.00177778 </v>
   <v>       0.00177778 </v>
   <v>       0.00177778 </v>
   <v>       0.00177778 </v>
   <v>       0.00088889 </v>
   <v>       0.00177778 </v>
   <v>       0.00177778 </v>
   <v>       0.00177778 </v>
   <v>       0.00177778 </v>
   <v>       0.00177778 </v>
   <v>       0.00088889 </v>
   <v>       0.00177778 </v>
   <v>       0.00177778 </v>
   <v>       0.00177778 </v>
   <v>       0.00177778 </v>
   <v>       0.00088889 </v>
   <v>       0.00177778 </v>
   <v>       0.00177778 </v>
   <v>       0.00177778 </v>
   <v>       0.00088889 </v>
   <v>       0.00177778 </v>
   <v>       0.00177778 </v>
   <v>       0.00088889 </v>
   <v>       0.00177778 </v>
   <v>       0.00088889 </v>
   <v>       0.00029630 </v>
   <v>       0.00088889 </v>
   <v>       0.00088889 </v>
   <v>       0.00088889 </v>
   <v>       0.00088889 </v>
   <v>       0.00088889 </v>
   <v>       0.00088889 </v>
   <v>       0.00088889 </v>
   <v>       0.00088889 </v>
   <v>       0.00088889 </v>
   <v>       0.00088889 </v>
   <v>       0.00088889 </v>
   <v>       0.00088889 </v>
   <v>       0.00177778 </v>
   <v>       0.00177778 </v>
   <v>       0.00177778 </v>
   <v>       0.00177778 </v>
   <v>       0.00177778 </v>
   <v>       0.00177778 </v>
   <v>       0.00177778 </v>
   <v>       0.00177778 </v>
   <v>       0.00177778 </v>
   <v>       0.00177778 </v>
   <v>       0.00088889 </v>
   <v>       0.00177778 </v>
   <v>       0.00177778 </v>
   <v>       0.00177778 </v>
   <v>       0.00177778 </v>
   <v>       0.00177778 </v>
   <v>       0.00177778 </v>
   <v>       0.00177778 </v>
   <v>       0.00177778 </v>
   <v>       0.00177778 </v>
   <v>       0.00088889 </v>
   <v>       0.00177778 </v>
   <v>       0.00177778 </v>
   <v>       0.00177778 </v>
   <v>       0.00177778 </v>
   <v>       0.00177778 </v>
   <v>       0.00177778 </v>
   <v>       0.00177778 </v>
   <v>       0.00177778 </v>
   <v>       0.00088889 </v>
   <v>       0.00177778 </v>
   <v>       0.00177778 </v>
   <v>       0.00177778 </v>
   <v>       0.00177778 </v>
   <v>       0.00177778 </v>
   <v>       0.00177778 </v>
   <v>       0.00177778 </v>
   <v>       0.00088889 </v>
   <v>       0.00177778 </v>
   <v>       0.00177778 </v>
   <v>       0.00177778 </v>
   <v>       0.00177778 </v>
   <v>       0.00177778 </v>
   <v>       0.00177778 </v>
   <v>       0.00088889 </v>
   <v>       0.00177778 </v>
   <v>       0.00177778 </v>
   <v>       0.00177778 </v>
   <v>       0.00177778 </v>
   <v>       0.00177778 </v>
   <v>       0.00088889 </v>
   <v>       0.00177778 </v>
   <v>       0.00177778 </v>
   <v>       0.00177778 </v>
   <v>       0.00177778 </v>
   <v>       0.00088889 </v>
   <v>       0.00177778 </v>
   <v>       0.00177778 </v>
   <v>       0.00177778 </v>
   <v>       0.00088889 </v>
   <v>       0.00177778 </v>
   <v>       0.00177778 </v>
   <v>       0.00088889 </v>
   <v>       0.00177778 </v>
   <v>       0.00088889 </v>
   <v>       0.00029630 </v>
   <v>       0.00088889 </v>
   <v>       0.00088889 </v>
   <v>       0.00088889 </v>
   <v>       0.00088889 </v>
   <v>       0.00088889 </v>
   <v>       0.00088889 </v>
   <v>       0.00088889 </v>
   <v>       0.00088889 </v>
   <v>       0.00088889 </v>
   <v>       0.00088889 </v>
   <v>       0.00088889 </v>
   <v>       0.00177778 </v>
   <v>       0.00177778 </v>
   <v>       0.00177778 </v>
   <v>       0.00177778 </v>
   <v>       0.00177778 </v>
   <v>       0.00177778 </v>
   <v>       0.00177778 </v>
   <v>       0.00177778 </v>
   <v>       0.00177778 </v>
   <v>       0.00088889 </v>
   <v>       0.00177778 </v>
   <v>       0.00177778 </v>
   <v>       0.00177778 </v>
   <v>       0.00177778 </v>
   <v>       0.00177778 </v>
   <v>       0.00177778 </v>
   <v>       0.00177778 </v>
   <v>       0.00177778 </v>
   <v>       0.00088889 </v>
   <v>       0.00177778 </v>
   <v>       0.00177778 </v>
   <v>       0.00177778 </v>
   <v>       0.00177778 </v>
   <v>       0.00177778 </v>
   <v>       0.00177778 </v>
   <v>       0.00177778 </v>
   <v>       0.00088889 </v>
   <v>       0.00177778 </v>
   <v>       0.00177778 </v>
   <v>       0.00177778 </v>
   <v>       0.00177778 </v>
   <v>       0.00177778 </v>
   <v>       0.00177778 </v>
   <v>       0.00088889 </v>
   <v>       0.00177778 </v>
   <v>       0.00177778 </v>
   <v>       0.00177778 </v>
   <v>       0.00177778 </v>
   <v>       0.00177778 </v>
   <v>       0.00088889 </v>
   <v>       0.00177778 </v>
   <v>       0.00177778 </v>
   <v>       0.00177778 </v>
   <v>       0.00177778 </v>
   <v>       0.00088889 </v>
   <v>       0.00177778 </v>
   <v>       0.00177778 </v>
   <v>       0.00177778 </v>
   <v>       0.00088889 </v>
   <v>       0.00177778 </v>
   <v>       0.00177778 </v>
   <v>       0.00088889 </v>
   <v>       0.00177778 </v>
   <v>       0.00088889 </v>
   <v>       0.00029630 </v>
   <v>       0.00088889 </v>
   <v>       0.00088889 </v>
   <v>       0.00088889 </v>
   <v>       0.00088889 </v>
   <v>       0.00088889 </v>
   <v>       0.00088889 </v>
   <v>       0.00088889 </v>
   <v>       0.00088889 </v>
   <v>       0.00088889 </v>
   <v>       0.00088889 </v>
   <v>       0.00177778 </v>
   <v>       0.00177778 </v>
   <v>       0.00177778 </v>
   <v>       0.00177778 </v>
   <v>       0.00177778 </v>
   <v>       0.00177778 </v>
   <v>       0.00177778 </v>
   <v>       0.00177778 </v>
   <v>       0.00088889 </v>
   <v>       0.00177778 </v>
   <v>       0.00177778 </v>
   <v>       0.00177778 </v>
   <v>       0.00177778 </v>
   <v>       0.00177778 </v>
   <v>       0.00177778 </v>
   <v>       0.00177778 </v>
   <v>       0.00088889 </v>
   <v>       0.00177778 </v>
   <v>       0.00177778 </v>
   <v>       0.00177778 </v>
   <v>       0.00177778 </v>
   <v>       0.00177778 </v>
   <v>       0.00177778 </v>
   <v>       0.00088889 </v>
   <v>       0.00177778 </v>
   <v>       0.00177778 </v>
   <v>       0.00177778 </v>
   <v>       0.00177778 </v>
   <v>       0.00177778 </v>
   <v>       0.00088889 </v>
   <v>       0.00177778 </v>
   <v>       0.00177778 </v>
   <v>       0.00177778 </v>
   <v>       0.00177778 </v>
   <v>       0.00088889 </v>
   <v>       0.00177778 </v>
   <v>       0.00177778 </v>
   <v>       0.00177778 </v>
   <v>       0.00088889 </v>
   <v>       0.00177778 </v>
   <v>       0.00177778 </v>
   <v>       0.00088889 </v>
   <v>       0.00177778 </v>
   <v>       0.00088889 </v>
   <v>       0.00029630 </v>
   <v>       0.00088889 </v>
   <v>       0.00088889 </v>
   <v>       0.00088889 </v>
   <v>       0.00088889 </v>
   <v>       0.00088889 </v>
   <v>       0.00088889 </v>
   <v>       0.00088889 </v>
   <v>       0.00088889 </v>
   <v>       0.00088889 </v>
   <v>       0.00177778 </v>
   <v>       0.00177778 </v>
   <v>       0.00177778 </v>
   <v>       0.00177778 </v>
   <v>       0.00177778 </v>
   <v>       0.00177778 </v>
   <v>       0.00177778 </v>
   <v>       0.00088889 </v>
   <v>       0.00177778 </v>
   <v>       0.00177778 </v>
   <v>       0.00177778 </v>
   <v>       0.00177778 </v>
   <v>       0.00177778 </v>
   <v>       0.00177778 </v>
   <v>       0.00088889 </v>
   <v>       0.00177778 </v>
   <v>       0.00177778 </v>
   <v>       0.00177778 </v>
   <v>       0.00177778 </v>
   <v>       0.00177778 </v>
   <v>       0.00088889 </v>
   <v>       0.00177778 </v>
   <v>       0.00177778 </v>
   <v>       0.00177778 </v>
   <v>       0.00177778 </v>
   <v>       0.00088889 </v>
   <v>       0.00177778 </v>
   <v>       0.00177778 </v>
   <v>       0.00177778 </v>
   <v>       0.00088889 </v>
   <v>       0.00177778 </v>
   <v>       0.00177778 </v>
   <v>       0.00088889 </v>
   <v>       0.00177778 </v>
   <v>       0.00088889 </v>
   <v>       0.00029630 </v>
   <v>       0.00088889 </v>
   <v>       0.00088889 </v>
   <v>       0.00088889 </v>
   <v>       0.00088889 </v>
   <v>       0.00088889 </v>
   <v>       0.00088889 </v>
   <v>       0.00088889 </v>
   <v>       0.00088889 </v>
   <v>       0.00177778 </v>
   <v>       0.00177778 </v>
   <v>       0.00177778 </v>
   <v>       0.00177778 </v>
   <v>       0.00177778 </v>
   <v>       0.00177778 </v>
   <v>       0.00088889 </v>
   <v>       0.00177778 </v>
   <v>       0.00177778 </v>
   <v>       0.00177778 </v>
   <v>       0.00177778 </v>
   <v>       0.00177778 </v>
   <v>       0.00088889 </v>
   <v>       0.00177778 </v>
   <v>       0.00177778 </v>
   <v>       0.00177778 </v>
   <v>       0.00177778 </v>
   <v>       0.00088889 </v>
   <v>       0.00177778 </v>
   <v>       0.00177778 </v>
   <v>       0.00177778 </v>
   <v>       0.00088889 </v>
   <v>       0.00177778 </v>
   <v>       0.00177778 </v>
   <v>       0.00088889 </v>
   <v>       0.00177778 </v>
   <v>       0.00088889 </v>
   <v>       0.00029630 </v>
   <v>       0.00088889 </v>
   <v>       0.00088889 </v>
   <v>       0.00088889 </v>
   <v>       0.00088889 </v>
   <v>       0.00088889 </v>
   <v>       0.00088889 </v>
   <v>       0.00088889 </v>
   <v>       0.00177778 </v>
   <v>       0.00177778 </v>
   <v>       0.00177778 </v>
   <v>       0.00177778 </v>
   <v>       0.00177778 </v>
   <v>       0.00088889 </v>
   <v>       0.00177778 </v>
   <v>       0.00177778 </v>
   <v>       0.00177778 </v>
   <v>       0.00177778 </v>
   <v>       0.00088889 </v>
   <v>       0.00177778 </v>
   <v>       0.00177778 </v>
   <v>       0.00177778 </v>
   <v>       0.00088889 </v>
   <v>       0.00177778 </v>
   <v>       0.00177778 </v>
   <v>       0.00088889 </v>
   <v>       0.00177778 </v>
   <v>       0.00088889 </v>
   <v>       0.00029630 </v>
   <v>       0.00088889 </v>
   <v>       0.00088889 </v>
   <v>       0.00088889 </v>
   <v>       0.00088889 </v>
   <v>       0.00088889 </v>
   <v>       0.00088889 </v>
   <v>       0.00177778 </v>
   <v>       0.00177778 </v>
   <v>       0.00177778 </v>
   <v>       0.00177778 </v>
   <v>       0.00088889 </v>
   <v>       0.00177778 </v>
   <v>       0.00177778 </v>
   <v>       0.00177778 </v>
   <v>       0.00088889 </v>
   <v>       0.00177778 </v>
   <v>       0.00177778 </v>
   <v>       0.00088889 </v>
   <v>       0.00177778 </v>
   <v>       0.00088889 </v>
   <v>       0.00029630 </v>
   <v>       0.00088889 </v>
   <v>       0.00088889 </v>
   <v>       0.00088889 </v>
   <v>       0.00088889 </v>
   <v>       0.00088889 </v>
   <v>       0.00177778 </v>
   <v>       0.00177778 </v>
   <v>       0.00177778 </v>
   <v>       0.00088889 </v>
   <v>       0.00177778 </v>
   <v>       0.00177778 </v>
   <v>       0.00088889 </v>
   <v>       0.00177778 </v>
   <v>       0.00088889 </v>
   <v>       0.00029630 </v>
   <v>       0.00088889 </v>
   <v>       0.00088889 </v>
   <v>       0.00088889 </v>
   <v>       0.00088889 </v>
   <v>       0.00177778 </v>
   <v>       0.00177778 </v>
   <v>       0.00088889 </v>
   <v>       0.00177778 </v>
   <v>       0.00088889 </v>
   <v>       0.00029630 </v>
   <v>       0.00088889 </v>
   <v>       0.00088889 </v>
   <v>       0.00088889 </v>
   <v>       0.00177778 </v>
   <v>       0.00088889 </v>
   <v>       0.00029630 </v>
   <v>       0.00088889 </v>
   <v>       0.00088889 </v>
   <v>       0.00029630 </v>
  </varray>
 </kpoints>
 <parameters>
  <separator name="general" >
   <i type="string" name="SYSTEM">unknown system</i>
   <i type="logical" name="LCOMPAT"> F  </i>
  </separator>
  <separator name="electronic" >
   <i type="string" name="PREC">accura</i>
   <i name="ENMAX">    300.00000000</i>
   <i name="ENAUG">    291.05200000</i>
   <i name="EDIFF">      0.00000001</i>
   <i type="int" name="IALGO">    38</i>
   <i type="int" name="IWAVPR">    11</i>
   <i type="int" name="NBANDS">    12</i>
   <i type="int" name="NBANDSLOW">    -1</i>
   <i type="int" name="NBANDSHIGH">    -1</i>
   <i name="NELECT">     12.00000000</i>
   <i type="int" name="TURBO">     0</i>
   <i type="int" name="IRESTART">     0</i>
   <i type="int" name="NREBOOT">     0</i>
   <i type="int" name="NMIN">     0</i>
   <i name="EREF">      0.00000000</i>
   <separator name="electronic smearing" >
    <i type="int" name="ISMEAR">     1</i>
    <i name="SIGMA">      0.20000000</i>
    <i name="KSPACING">      0.50000000</i>
    <i type="logical" name="KGAMMA"> T  </i>
    <i type="logical" name="KBLOWUP"> T  </i>
   </separator>
   <separator name="electronic projectors" >
    <i type="logical" name="LREAL"> F  </i>
    <v name="ROPT">      0.00000000</v>
    <i type="int" name="LMAXPAW">  -100</i>
    <i type="int" name="LMAXMIX">     2</i>
    <i type="logical" name="NLSPLINE"> F  </i>
   </separator>
   <separator name="electronic startup" >
    <i type="int" name="ISTART">     0</i>
    <i type="int" name="ICHARG">     2</i>
    <i type="int" name="INIWAV">     1</i>
   </separator>
   <separator name="electronic spin" >
    <i type="int" name="ISPIN">     1</i>
    <i type="logical" name="LNONCOLLINEAR"> F  </i>
    <v name="MAGMOM">      1.00000000      1.00000000      1.00000000      1.00000000</v>
    <i name="NUPDOWN">     -1.00000000</i>
    <i type="logical" name="LSORBIT"> F  </i>
    <v name="SAXIS">      0.00000000      0.00000000      1.00000000</v>
    <i type="logical" name="LSPIRAL"> F  </i>
    <v name="QSPIRAL">      0.00000000      0.00000000      0.00000000</v>
    <i type="logical" name="LZEROZ"> F  </i>
   </separator>
   <separator name="electronic exchange-correlation" >
    <i type="logical" name="LASPH"> F  </i>
    <i type="logical" name="LMETAGGA"> F  </i>
   </separator>
   <separator name="electronic convergence" >
    <i type="int" name="NELM">   300</i>
    <i type="int" name="NELMDL">    -5</i>
    <i type="int" name="NELMIN">     5</i>
    <i name="ENINI">    300.00000000</i>
    <separator name="electronic convergence detail" >
     <i type="logical" name="LDIAG"> T  </i>
     <i type="logical" name="LSUBROT"> F  </i>
     <i name="WEIMIN">      0.00100000</i>
     <i name="EBREAK">      0.00000000</i>
     <i name="DEPER">      0.30000000</i>
     <i type="int" name="NRMM">     4</i>
     <i name="TIME">      0.40000000</i>
    </separator>
   </separator>
   <separator name="electronic mixer" >
    <i name="AMIX">      0.40000000</i>
    <i name="BMIX">      1.00000000</i>
    <i name="AMIN">      0.10000000</i>
    <i name="AMIX_MAG">      1.60000000</i>
    <i name="BMIX_MAG">      1.00000000</i>
    <separator name="electronic mixer details" >
     <i type="int" name="IMIX">     4</i>
     <i type="logical" name="MIXFIRST"> F  </i>
     <i type="int" name="MAXMIX">   -45</i>
     <i name="WC">    100.00000000</i>
     <i type="int" name="INIMIX">     1</i>
     <i type="int" name="MIXPRE">     1</i>
     <i type="int" name="MREMOVE">     5</i>
    </separator>
   </separator>
   <separator name="electronic dipolcorrection" >
    <i type="logical" name="LDIPOL"> F  </i>
    <i type="logical" name="LMONO"> F  </i>
    <i type="int" name="IDIPOL">     0</i>
    <i name="EPSILON">      1.00000000</i>
    <v name="DIPOL">   -100.00000000   -100.00000000   -100.00000000</v>
    <i name="EFIELD">      0.00000000</i>
   </separator>
  </separator>
  <separator name="grids" >
   <i type="int" name="NGX">    24</i>
   <i type="int" name="NGY">    24</i>
   <i type="int" name="NGZ">    24</i>
   <i type="int" name="NGXF">    48</i>
   <i type="int" name="NGYF">    48</i>
   <i type="int" name="NGZF">    48</i>
   <i type="logical" name="ADDGRID"> T  </i>
  </separator>
  <separator name="ionic" >
   <i type="int" name="NSW">   500</i>
   <i type="int" name="IBRION">     2</i>
   <i type="int" name="MDALGO">     0</i>
   <i type="int" name="ISIF">     3</i>
   <i name="PSTRESS">      0.00000000</i>
   <i name="EDIFFG">     -0.00000001</i>
   <i type="int" name="NFREE">     1</i>
   <i name="POTIM">      0.50000000</i>
   <i name="SMASS">     -3.00000000</i>
   <i name="SCALEE">      1.00000000</i>
  </separator>
  <separator name="ionic md" >
   <i name="TEBEG">      0.00010000</i>
   <i name="TEEND">      0.00010000</i>
   <i type="int" name="NBLOCK">     1</i>
   <i type="int" name="KBLOCK">   500</i>
   <i type="int" name="NPACO">   256</i>
   <i name="APACO">     10.00000000</i>
  </separator>
  <separator name="symmetry" >
   <i type="int" name="ISYM">     2</i>
   <i name="SYMPREC">      0.00001000</i>
  </separator>
  <separator name="dos" >
   <i type="int" name="LORBIT">     0</i>
   <v name="RWIGS">     -1.00000000</v>
   <i type="int" name="NEDOS">   301</i>
   <i name="EMIN">     10.00000000</i>
   <i name="EMAX">    -10.00000000</i>
   <i name="EFERMI">      0.00000000</i>
  </separator>
  <separator name="writing" >
   <i type="int" name="NWRITE">     2</i>
   <i type="logical" name="LWAVE"> F  </i>
   <i type="logical" name="LDOWNSAMPLE"> F  </i>
   <i type="logical" name="LCHARG"> F  </i>
   <i type="logical" name="LPARD"> F  </i>
   <i type="logical" name="LVTOT"> F  </i>
   <i type="logical" name="LVHAR"> F  </i>
   <i type="logical" name="LELF"> F  </i>
   <i type="logical" name="LOPTICS"> F  </i>
   <v name="STM">      0.00000000      0.00000000      0.00000000      0.00000000      0.00000000      0.00000000      0.00000000</v>
  </separator>
  <separator name="performance" >
   <i type="int" name="NPAR">     4</i>
   <i type="int" name="NSIM">     4</i>
   <i type="int" name="NBLK">    -1</i>
   <i type="logical" name="LPLANE"> T  </i>
   <i type="logical" name="LSCALAPACK"> T  </i>
   <i type="logical" name="LSCAAWARE"> F  </i>
   <i type="logical" name="LSCALU"> F  </i>
   <i type="logical" name="LASYNC"> F  </i>
   <i type="logical" name="LORBITALREAL"> F  </i>
  </separator>
  <separator name="miscellaneous" >
   <i type="int" name="IDIOT">     3</i>
   <i type="int" name="PHON_NSTRUCT">    -1</i>
   <i type="logical" name="LMUSIC"> F  </i>
   <v name="POMASS">     26.98100000</v>
   <v name="DARWINR">      0.00000000</v>
   <v name="DARWINV">      1.00000000</v>
   <i type="logical" name="LCORR"> T  </i>
  </separator>
  <i type="logical" name="GGA_COMPAT"> T  </i>
  <i type="logical" name="LBERRY"> F  </i>
  <i type="int" name="ICORELEVEL">     0</i>
  <i type="logical" name="LDAU"> F  </i>
  <i type="int" name="I_CONSTRAINED_M">     0</i>
  <separator name="electronic exchange-correlation" >
   <i type="string" name="GGA">--</i>
   <i type="int" name="VOSKOWN">     0</i>
   <i type="logical" name="LHFCALC"> F  </i>
   <i type="string" name="PRECFOCK"></i>
   <i type="logical" name="LSYMGRAD"> F  </i>
   <i type="logical" name="LHFONE"> F  </i>
   <i type="logical" name="LRHFCALC"> F  </i>
   <i type="logical" name="LTHOMAS"> F  </i>
   <i type="logical" name="LMODELHF"> F  </i>
   <i type="logical" name="LFOCKACE"> F  </i>
   <i name="ENCUT4O">     -1.00000000</i>
   <i type="int" name="EXXOEP">     0</i>
   <i type="int" name="FOURORBIT">     0</i>
   <i name="AEXX">      0.00000000</i>
   <i name="HFALPHA">      0.00000000</i>
   <i name="MCALPHA">      0.00000000</i>
   <i name="ALDAX">      1.00000000</i>
   <i name="AGGAX">      1.00000000</i>
   <i name="ALDAC">      1.00000000</i>
   <i name="AGGAC">      1.00000000</i>
   <i type="int" name="NKREDX">     1</i>
   <i type="int" name="NKREDY">     1</i>
   <i type="int" name="NKREDZ">     1</i>
   <i type="logical" name="SHIFTRED"> F  </i>
   <i type="logical" name="ODDONLY"> F  </i>
   <i type="logical" name="EVENONLY"> F  </i>
   <i type="int" name="LMAXFOCK">     0</i>
   <i type="int" name="NMAXFOCKAE">     0</i>
   <i type="logical" name="LFOCKAEDFT"> F  </i>
   <i name="HFSCREEN">      0.00000000</i>
   <i name="HFSCREENC">      0.00000000</i>
   <i type="int" name="NBANDSGWLOW">     0</i>
  </separator>
  <separator name="vdW DFT" >
   <i type="logical" name="LUSE_VDW"> F  </i>
   <i name="Zab_VDW">     -0.84910000</i>
   <i name="PARAM1">      0.12340000</i>
   <i name="PARAM2">      1.00000000</i>
   <i name="PARAM3">      0.00000000</i>
  </separator>
  <separator name="model GW" >
   <i type="int" name="MODEL_GW">     0</i>
   <i name="MODEL_EPS0">      9.88303058</i>
   <i name="MODEL_ALPHA">      1.00000000</i>
  </separator>
  <separator name="linear response parameters" >
   <i type="logical" name="LEPSILON"> F  </i>
   <i type="logical" name="LRPA"> F  </i>
   <i type="logical" name="LNABLA"> F  </i>
   <i type="logical" name="LVEL"> F  </i>
   <i name="CSHIFT">      0.10000000</i>
   <i name="OMEGAMAX">     -1.00000000</i>
   <i name="DEG_THRESHOLD">      0.00200000</i>
   <i name="RTIME">     -0.10000000</i>
   <i name="WPLASMAI">      0.00000000</i>
   <v name="DFIELD">      0.00000000      0.00000000      0.00000000</v>
   <v name="WPLASMA">      0.00000000      0.00000000      0.00000000      0.00000000      0.00000000      0.00000000      0.00000000      0.00000000      0.00000000</v>
  </separator>
  <separator name="orbital magnetization" >
   <i type="logical" name="NUCIND"> F  </i>
   <v name="MAGPOS">      0.00000000      0.00000000      0.00000000</v>
   <i type="logical" name="LNICSALL"> T  </i>
   <i type="logical" name="ORBITALMAG"> F  </i>
   <i type="logical" name="LMAGBLOCH"> F  </i>
   <i type="logical" name="LCHIMAG"> F  </i>
   <i type="logical" name="LGAUGE"> T  </i>
   <i type="int" name="MAGATOM">     0</i>
   <v name="MAGDIPOL">      0.00000000      0.00000000      0.00000000</v>
   <v name="AVECCONST">      0.00000000      0.00000000      0.00000000</v>
  </separator>
  <separator name="response functions" >
   <i type="logical" name="LFINITE_TEMPERATURE"> F  </i>
   <i type="logical" name="LADDER"> F  </i>
   <i type="logical" name="LRPAFORCE"> F  </i>
   <i type="logical" name="LFXC"> F  </i>
   <i type="logical" name="LHARTREE"> T  </i>
   <i type="int" name="IBSE">     0</i>
   <v type="int" name="KPOINT">    -1     0     0     0</v>
   <i type="logical" name="LTCTC"> F  </i>
   <i type="logical" name="LTCTE"> F  </i>
   <i type="logical" name="LTETE"> F  </i>
   <i type="logical" name="LTRIPLET"> F  </i>
   <i type="logical" name="LFXCEPS"> F  </i>
   <i type="logical" name="LFXHEG"> F  </i>
   <i type="int" name="NATURALO">     2</i>
   <i type="logical" name="LHOLEGF"> F  </i>
   <i type="logical" name="L2ORDER"> F  </i>
   <i type="logical" name="LDMP1"> F  </i>
   <i type="logical" name="LMP2LT"> F  </i>
   <i type="logical" name="LSMP2LT"> F  </i>
   <i type="logical" name="LGWLF"> F  </i>
   <i name="ENCUTGW">     -2.00000000</i>
   <i name="ENCUTGWSOFT">     -2.00000000</i>
   <i name="ENCUTLF">     -1.00000000</i>
   <i type="logical" name="LESF_SPLINES"> F  </i>
   <i type="int" name="LMAXMP2">    -1</i>
   <i name="SCISSOR">      0.00000000</i>
   <i type="int" name="NOMEGA">     0</i>
   <i type="int" name="NOMEGAR">     0</i>
   <i type="int" name="NBANDSGW">    -1</i>
   <i type="int" name="NBANDSO">    -1</i>
   <i type="int" name="NBANDSV">    -1</i>
   <i type="int" name="NELMGW">     1</i>
   <i type="int" name="NELMHF">     1</i>
   <i type="int" name="DIM">     3</i>
   <i type="int" name="IESPILON">     4</i>
   <i type="int" name="ANTIRES">     0</i>
   <i name="OMEGAMAX">    -30.00000000</i>
   <i name="OMEGAMIN">    -30.00000000</i>
   <i name="OMEGATL">   -200.00000000</i>
   <i type="int" name="OMEGAGRID">     0</i>
   <i name="CSHIFT">     -0.10000000</i>
   <i type="logical" name="LSELFENERGY"> F  </i>
   <i type="logical" name="LSPECTRAL"> F  </i>
   <i type="logical" name="LSPECTRALGW"> F  </i>
   <i type="logical" name="LSINGLES"> F  </i>
   <i type="logical" name="LFERMIGW"> F  </i>
   <i type="logical" name="ODDONLYGW"> F  </i>
   <i type="logical" name="EVENONLYGW"> F  </i>
   <i type="int" name="NKREDLFX">     1</i>
   <i type="int" name="NKREDLFY">     1</i>
   <i type="int" name="NKREDLFZ">     1</i>
   <i type="int" name="MAXMEM">  2800</i>
   <i type="int" name="TELESCOPE">     0</i>
   <i type="int" name="NTAUPAR">    -1</i>
   <i type="int" name="NOMEGAPAR">    -1</i>
   <i name="DAMP_NEWTON">      0.80000001</i>
   <i name="LAMBDA">      1.00000000</i>
  </separator>
  <separator name="External order field" >
   <i name="OFIELD_KAPPA">      0.00000000</i>
   <v name="OFIELD_K">      0.00000000      0.00000000      0.00000000</v>
   <i name="OFIELD_Q6_NEAR">      0.00000000</i>
   <i name="OFIELD_Q6_FAR">      0.00000000</i>
   <i name="OFIELD_A">      0.00000000</i>
  </separator>
  <separator name="optional k-points parameters" >
   <i type="int" name="KPOINTS_OPT_MODE">     1</i>
   <i type="logical" name="LKPOINTS_OPT"> F  </i>
  </separator>
 </parameters>
 <atominfo>
  <atoms>       4 </atoms>
  <types>       1 </types>
  <array name="atoms" >
   <dimension dim="1">ion</dimension>
   <field type="string">element</field>
   <field type="int">atomtype</field>
   <set>
    <rc><c>Al</c><c>   1</c></rc>
    <rc><c>Al</c><c>   1</c></rc>
    <rc><c>Al</c><c>   1</c></rc>
    <rc><c>Al</c><c>   1</c></rc>
   </set>
  </array>
  <array name="atomtypes" >
   <dimension dim="1">type</dimension>
   <field type="int">atomspertype</field>
   <field type="string">element</field>
   <field>mass</field>
   <field>valence</field>
   <field type="string">pseudopotential</field>
   <set>
    <rc><c>   4</c><c>Al</c><c>     26.98100000</c><c>      3.00000000</c><c>  PAW_PBE Al 04Jan2001                  </c></rc>
   </set>
  </array>
 </atominfo>
 <structure name="initialpos" >
  <crystal>
   <varray name="basis" >
    <v>       4.03892969       0.00000000       0.00000000 </v>
    <v>       0.00000000       4.03892969       0.00000000 </v>
    <v>       0.00000000       0.00000000       4.03892969 </v>
   </varray>
   <i name="volume">     65.88687052 </i>
   <varray name="rec_basis" >
    <v>       0.24759035      -0.00000000       0.00000000 </v>
    <v>       0.00000000       0.24759035       0.00000000 </v>
    <v>      -0.00000000      -0.00000000       0.24759035 </v>
   </varray>
  </crystal>
  <varray name="positions" >
   <v>       0.00000000       0.00000000       0.00000000 </v>
   <v>       0.00000000       0.50000000       0.50000000 </v>
   <v>       0.50000000       0.00000000       0.50000000 </v>
   <v>       0.50000000       0.50000000       0.00000000 </v>
[...]
       <r>    2.0498    1.0000 </r>
       <r>    2.3408    1.0000 </r>
       <r>    3.4689    1.0000 </r>
       <r>    3.4689    1.0000 </r>
       <r>    3.8361    1.0000 </r>
       <r>    3.8361    1.0000 </r>
       <r>    4.9542    1.0000 </r>
       <r>    5.2403    1.0000 </r>
       <r>   17.4363    0.0000 </r>
       <r>   17.4363    0.0000 </r>
       <r>   17.6688    0.0000 </r>
       <r>   17.6688    0.0000 </r>
      </set>
      <set comment="kpoint 674">
       <r>    2.0304    1.0000 </r>
       <r>    2.8998    1.0000 </r>
       <r>    2.8998    1.0000 </r>
       <r>    3.4498    1.0000 </r>
       <r>    3.8166    1.0000 </r>
       <r>    4.3639    1.0000 </r>
       <r>    4.3639    1.0000 </r>
       <r>    5.2214    1.0000 </r>
       <r>   17.4583    0.0000 </r>
       <r>   17.9266    0.0000 </r>
       <r>   17.9266    0.0000 </r>
       <r>   18.0081    0.0000 </r>
      </set>
      <set comment="kpoint 675">
       <r>    2.3020    1.0000 </r>
       <r>    2.5920    1.0000 </r>
       <r>    3.1653    1.0000 </r>
       <r>    3.4313    1.0000 </r>
       <r>    3.7973    1.0000 </r>
       <r>    4.0620    1.0000 </r>
       <r>    4.6302    1.0000 </r>
       <r>    4.9162    1.0000 </r>
       <r>   17.6654    0.0000 </r>
       <r>   17.8511    0.0000 </r>
       <r>   18.1342    0.0000 </r>
       <r>   18.2191    0.0000 </r>
      </set>
      <set comment="kpoint 676">
       <r>    2.5728    1.0000 </r>
       <r>    2.8612    1.0000 </r>
       <r>    2.8612    1.0000 </r>
       <r>    3.1465    1.0000 </r>
       <r>    4.0428    1.0000 </r>
       <r>    4.3256    1.0000 </r>
       <r>    4.3256    1.0000 </r>
       <r>    4.6111    1.0000 </r>
       <r>   17.8821    0.0000 </r>
       <r>   18.0810    0.0000 </r>
       <r>   18.0810    0.0000 </r>
       <r>   18.2977    0.0000 </r>
      </set>
      <set comment="kpoint 677">
       <r>    2.2826    1.0000 </r>
       <r>    3.1462    1.0000 </r>
       <r>    3.1462    1.0000 </r>
       <r>    3.1462    1.0000 </r>
       <r>    4.0428    1.0000 </r>
       <r>    4.0428    1.0000 </r>
       <r>    4.0428    1.0000 </r>
       <r>    4.8973    1.0000 </r>
       <r>   18.1469    0.0000 </r>
       <r>   18.1469    0.0000 </r>
       <r>   18.1469    0.0000 </r>
       <r>   18.3663    0.0000 </r>
      </set>
      <set comment="kpoint 678">
       <r>    2.5534    1.0000 </r>
       <r>    2.8420    1.0000 </r>
       <r>    3.3934    1.0000 </r>
       <r>    3.3934    1.0000 </r>
       <r>    3.7584    1.0000 </r>
       <r>    3.7584    1.0000 </r>
       <r>    4.3065    1.0000 </r>
       <r>    4.5921    1.0000 </r>
       <r>   18.3231    0.0000 </r>
       <r>   18.3231    0.0000 </r>
       <r>   18.4519    0.0000 </r>
       <r>   18.4519    0.0000 </r>
      </set>
      <set comment="kpoint 679">
       <r>    2.8227    1.0000 </r>
       <r>    3.1080    1.0000 </r>
       <r>    3.1080    1.0000 </r>
       <r>    3.3746    1.0000 </r>
       <r>    3.7390    1.0000 </r>
       <r>    4.0044    1.0000 </r>
       <r>    4.0044    1.0000 </r>
       <r>    4.2874    1.0000 </r>
       <r>   18.5274    0.0000 </r>
       <r>   18.6708    0.0000 </r>
       <r>   18.6708    0.0000 </r>
       <r>   18.8548    0.0000 </r>
      </set>
      <set comment="kpoint 680">
       <r>    3.0885    1.0000 </r>
       <r>    3.3558    1.0000 </r>
       <r>    3.3558    1.0000 </r>
       <r>    3.3558    1.0000 </r>
       <r>    3.7196    1.0000 </r>
       <r>    3.7196    1.0000 </r>
       <r>    3.7196    1.0000 </r>
       <r>    3.9851    1.0000 </r>
       <r>   19.0979    0.0000 </r>
       <r>   19.0980    0.0000 </r>
       <r>   19.1014    0.0000 </r>
       <r>   19.1198    0.0000 </r>
      </set>
     </set>
    </set>
   </array>
  </eigenvalues>
  <separator name="orbital magnetization" >
   <v name="MAGDIPOLOUT">      0.00000000      0.00000000      0.00000000</v>
  </separator>
  <dos>
   <i name="efermi">      8.03353761 </i>
   <total>
    <array>
     <dimension dim="1">gridpoints</dimension>
     <dimension dim="2">spin</dimension>
     <field>energy</field>
     <field>total</field>
     <field>integrated</field>
     <set>
      <set comment="spin 1">
       <r>    -5.1193     0.0000     0.0000 </r>
       <r>    -5.0318     0.0000     0.0000 </r>
       <r>    -4.9444     0.0000     0.0000 </r>
       <r>    -4.8569     0.0000     0.0000 </r>
       <r>    -4.7694    -0.0000    -0.0000 </r>
       <r>    -4.6820    -0.0000    -0.0000 </r>
       <r>    -4.5945    -0.0000    -0.0000 </r>
       <r>    -4.5070    -0.0000    -0.0000 </r>
       <r>    -4.4196    -0.0000    -0.0000 </r>
       <r>    -4.3321    -0.0000    -0.0000 </r>
       <r>    -4.2447    -0.0000    -0.0000 </r>
       <r>    -4.1572    -0.0000    -0.0000 </r>
       <r>    -4.0697    -0.0000    -0.0000 </r>
       <r>    -3.9823    -0.0000    -0.0000 </r>
       <r>    -3.8948    -0.0000    -0.0000 </r>
       <r>    -3.8073    -0.0000    -0.0000 </r>
       <r>    -3.7199    -0.0000    -0.0000 </r>
       <r>    -3.6324    -0.0000    -0.0000 </r>
       <r>    -3.5449    -0.0003    -0.0000 </r>
       <r>    -3.4575    -0.0012    -0.0001 </r>
       <r>    -3.3700    -0.0037    -0.0005 </r>
       <r>    -3.2826    -0.0053    -0.0009 </r>
       <r>    -3.1951     0.0044    -0.0005 </r>
       <r>    -3.1076     0.0393     0.0029 </r>
       <r>    -3.0202     0.0997     0.0116 </r>
       <r>    -2.9327     0.1665     0.0262 </r>
       <r>    -2.8452     0.2219     0.0456 </r>
       <r>    -2.7578     0.2636     0.0686 </r>
       <r>    -2.6703     0.2971     0.0946 </r>
       <r>    -2.5828     0.3268     0.1232 </r>
       <r>    -2.4954     0.3543     0.1542 </r>
       <r>    -2.4079     0.3799     0.1874 </r>
       <r>    -2.3205     0.4041     0.2228 </r>
       <r>    -2.2330     0.4269     0.2601 </r>
       <r>    -2.1455     0.4487     0.2993 </r>
       <r>    -2.0581     0.4694     0.3404 </r>
       <r>    -1.9706     0.4896     0.3832 </r>
       <r>    -1.8831     0.5086     0.4277 </r>
       <r>    -1.7957     0.5274     0.4738 </r>
       <r>    -1.7082     0.5457     0.5216 </r>
       <r>    -1.6207     0.5626     0.5708 </r>
       <r>    -1.5333     0.5801     0.6215 </r>
       <r>    -1.4458     0.5971     0.6737 </r>
       <r>    -1.3584     0.6120     0.7273 </r>
       <r>    -1.2709     0.6288     0.7823 </r>
       <r>    -1.1834     0.6453     0.8387 </r>
       <r>    -1.0960     0.6581     0.8963 </r>
       <r>    -1.0085     0.6735     0.9552 </r>
       <r>    -0.9210     0.6910     1.0156 </r>
       <r>    -0.8336     0.7026     1.0771 </r>
       <r>    -0.7461     0.7144     1.1395 </r>
       <r>    -0.6586     0.7330     1.2037 </r>
       <r>    -0.5712     0.7471     1.2690 </r>
       <r>    -0.4837     0.7545     1.3350 </r>
       <r>    -0.3962     0.7694     1.4023 </r>
       <r>    -0.3088     0.7887     1.4713 </r>
       <r>    -0.2213     0.7991     1.5412 </r>
       <r>    -0.1339     0.8048     1.6116 </r>
       <r>    -0.0464     0.8206     1.6833 </r>
       <r>     0.0411     0.8420     1.7570 </r>
       <r>     0.1285     0.8494     1.8313 </r>
       <r>     0.2160     0.8513     1.9057 </r>
       <r>     0.3035     0.8695     1.9818 </r>
       <r>     0.3909     0.8917     2.0598 </r>
       <r>     0.4784     0.8984     2.1383 </r>
       <r>     0.5659     0.8998     2.2170 </r>
       <r>     0.6533     0.9126     2.2969 </r>
       <r>     0.7408     0.9352     2.3787 </r>
       <r>     0.8282     0.9514     2.4619 </r>
       <r>     0.9157     0.9496     2.5449 </r>
       <r>     1.0032     0.9500     2.6280 </r>
       <r>     1.0906     0.9755     2.7133 </r>
       <r>     1.1781     1.0011     2.8009 </r>
       <r>     1.2656     0.9999     2.8884 </r>
       <r>     1.3530     0.9953     2.9754 </r>
       <r>     1.4405     1.0110     3.0638 </r>
       <r>     1.5280     1.0353     3.1544 </r>
       <r>     1.6154     1.0514     3.2463 </r>
       <r>     1.7029     1.0540     3.3385 </r>
       <r>     1.7903     1.0496     3.4303 </r>
       <r>     1.8778     1.0580     3.5229 </r>
       <r>     1.9653     1.0892     3.6181 </r>
       <r>     2.0527     1.1139     3.7156 </r>
       <r>     2.1402     1.1048     3.8122 </r>
       <r>     2.2277     1.0912     3.9076 </r>
       <r>     2.3151     1.1131     4.0050 </r>
       <r>     2.4026     1.1489     4.1055 </r>
       <r>     2.4901     1.1590     4.2068 </r>
       <r>     2.5775     1.1540     4.3078 </r>
       <r>     2.6650     1.1552     4.4088 </r>
       <r>     2.7524     1.1627     4.5105 </r>
       <r>     2.8399     1.1824     4.6139 </r>
       <r>     2.9274     1.2120     4.7199 </r>
       <r>     3.0148     1.2255     4.8271 </r>
       <r>     3.1023     1.2108     4.9330 </r>
       <r>     3.1898     1.2018     5.0381 </r>
       <r>     3.2772     1.2340     5.1461 </r>
       <r>     3.3647     1.2838     5.2583 </r>
       <r>     3.4522     1.2955     5.3717 </r>
       <r>     3.5396     1.2627     5.4821 </r>
       <r>     3.6271     1.2406     5.5906 </r>
       <r>     3.7145     1.2599     5.7008 </r>
       <r>     3.8020     1.2907     5.8137 </r>
       <r>     3.8895     1.3052     5.9278 </r>
       <r>     3.9769     1.3123     6.0426 </r>
       <r>     4.0644     1.3200     6.1581 </r>
       <r>     4.1519     1.3179     6.2733 </r>
       <r>     4.2393     1.3222     6.3890 </r>
       <r>     4.3268     1.3584     6.5078 </r>
       <r>     4.4143     1.3944     6.6298 </r>
       <r>     4.5017     1.3887     6.7512 </r>
       <r>     4.5892     1.3664     6.8707 </r>
       <r>     4.6767     1.3782     6.9913 </r>
       <r>     4.7641     1.4267     7.1161 </r>
       <r>     4.8516     1.4630     7.2440 </r>
       <r>     4.9390     1.4632     7.3720 </r>
       <r>     5.0265     1.4690     7.5005 </r>
       <r>     5.1140     1.5132     7.6328 </r>
       <r>     5.2014     1.5593     7.7692 </r>
       <r>     5.2889     1.5563     7.9053 </r>
       <r>     5.3764     1.5176     8.0381 </r>
       <r>     5.4638     1.4989     8.1692 </r>
       <r>     5.5513     1.5082     8.3011 </r>
       <r>     5.6388     1.4989     8.4322 </r>
       <r>     5.7262     1.4613     8.5600 </r>
       <r>     5.8137     1.4367     8.6857 </r>
       <r>     5.9011     1.4386     8.8115 </r>
       <r>     5.9886     1.4373     8.9372 </r>
       <r>     6.0761     1.4134     9.0608 </r>
       <r>     6.1635     1.3824     9.1817 </r>
       <r>     6.2510     1.3701     9.3016 </r>
       <r>     6.3385     1.3783     9.4221 </r>
       <r>     6.4259     1.3966     9.5443 </r>
       <r>     6.5134     1.4216     9.6686 </r>
       <r>     6.6009     1.4463     9.7951 </r>
       <r>     6.6883     1.4645     9.9232 </r>
       <r>     6.7758     1.4807    10.0527 </r>
       <r>     6.8632     1.5062    10.1844 </r>
       <r>     6.9507     1.5481    10.3198 </r>
       <r>     7.0382     1.5845    10.4584 </r>
       <r>     7.1256     1.5895    10.5974 </r>
       <r>     7.2131     1.5756    10.7353 </r>
       <r>     7.3006     1.5586    10.8716 </r>
       <r>     7.3880     1.5394    11.0062 </r>
       <r>     7.4755     1.5261    11.1397 </r>
       <r>     7.5630     1.5212    11.2727 </r>
       <r>     7.6504     1.5165    11.4054 </r>
       <r>     7.7379     1.5096    11.5374 </r>
       <r>     7.8253     1.5161    11.6700 </r>
       <r>     7.9128     1.5523    11.8058 </r>
       <r>     8.0003     1.6014    11.9459 </r>
       <r>     8.0877     1.6354    12.0889 </r>
       <r>     8.1752     1.6593    12.2340 </r>
       <r>     8.2627     1.6834    12.3813 </r>
       <r>     8.3501     1.6896    12.5290 </r>
       <r>     8.4376     1.6666    12.6748 </r>
       <r>     8.5251     1.6462    12.8188 </r>
       <r>     8.6125     1.6627    12.9642 </r>
       <r>     8.7000     1.6888    13.1119 </r>
       <r>     8.7875     1.6869    13.2595 </r>
       <r>     8.8749     1.6893    13.4072 </r>
       <r>     8.9624     1.7187    13.5576 </r>
       <r>     9.0498     1.7174    13.7078 </r>
       <r>     9.1373     1.6484    13.8519 </r>
       <r>     9.2248     1.5837    13.9905 </r>
       <r>     9.3122     1.6235    14.1325 </r>
       <r>     9.3997     1.7597    14.2864 </r>
       <r>     9.4872     1.8672    14.4497 </r>
       <r>     9.5746     1.8355    14.6102 </r>
       <r>     9.6621     1.6935    14.7583 </r>
       <r>     9.7496     1.5932    14.8977 </r>
       <r>     9.8370     1.6488    15.0419 </r>
       <r>     9.9245     1.8059    15.1998 </r>
       <r>    10.0119     1.9048    15.3664 </r>
       <r>    10.0994     1.8685    15.5299 </r>
       <r>    10.1869     1.7696    15.6846 </r>
       <r>    10.2743     1.7254    15.8356 </r>
       <r>    10.3618     1.7674    15.9901 </r>
       <r>    10.4493     1.8093    16.1484 </r>
       <r>    10.5367     1.8029    16.3061 </r>
       <r>    10.6242     1.8296    16.4661 </r>
       <r>    10.7117     1.8991    16.6322 </r>
       <r>    10.7991     1.8986    16.7983 </r>
       <r>    10.8866     1.8296    16.9583 </r>
       <r>    10.9740     1.8111    17.1167 </r>
       <r>    11.0615     1.8580    17.2792 </r>
       <r>    11.1490     1.8816    17.4438 </r>
       <r>    11.2364     1.8749    17.6078 </r>
       <r>    11.3239     1.9013    17.7740 </r>
       <r>    11.4114     1.9311    17.9429 </r>
       <r>    11.4988     1.9087    18.1099 </r>
       <r>    11.5863     1.8932    18.2755 </r>
       <r>    11.6738     1.9396    18.4451 </r>
       <r>    11.7612     1.9850    18.6187 </r>
       <r>    11.8487     1.9558    18.7898 </r>
       <r>    11.9361     1.8964    18.9557 </r>
       <r>    12.0236     1.8989    19.1217 </r>
       <r>    12.1111     1.9669    19.2938 </r>
       <r>    12.1985     2.0406    19.4723 </r>
       <r>    12.2860     2.0605    19.6525 </r>
       <r>    12.3735     2.0182    19.8290 </r>
       <r>    12.4609     1.9901    20.0031 </r>
       <r>    12.5484     2.0112    20.1790 </r>
       <r>    12.6359     2.0082    20.3546 </r>
       <r>    12.7233     1.9793    20.5277 </r>
       <r>    12.8108     2.0267    20.7050 </r>
       <r>    12.8982     2.1273    20.8910 </r>
       <r>    12.9857     2.1307    21.0774 </r>
       <r>    13.0732     2.0149    21.2536 </r>
       <r>    13.1606     1.8955    21.4194 </r>
       <r>    13.2481     1.8113    21.5778 </r>
       <r>    13.3356     1.7159    21.7279 </r>
       <r>    13.4230     1.6131    21.8690 </r>
       <r>    13.5105     1.5483    22.0044 </r>
       <r>    13.5980     1.5005    22.1357 </r>
       <r>    13.6854     1.4002    22.2581 </r>
       <r>    13.7729     1.2400    22.3666 </r>
       <r>    13.8604     1.0816    22.4612 </r>
       <r>    13.9478     0.9838    22.5472 </r>
       <r>    14.0353     0.9429    22.6297 </r>
       <r>    14.1227     0.9010    22.7085 </r>
       <r>    14.2102     0.8474    22.7826 </r>
       <r>    14.2977     0.8141    22.8538 </r>
       <r>    14.3851     0.7799    22.9220 </r>
       <r>    14.4726     0.7155    22.9846 </r>
       <r>    14.5601     0.6511    23.0415 </r>
       <r>    14.6475     0.6176    23.0956 </r>
       <r>    14.7350     0.5954    23.1476 </r>
       <r>    14.8225     0.5592    23.1965 </r>
       <r>    14.9099     0.5220    23.2422 </r>
       <r>    14.9974     0.4986    23.2858 </r>
       <r>    15.0848     0.4833    23.3281 </r>
       <r>    15.1723     0.4717    23.3693 </r>
       <r>    15.2598     0.4531    23.4090 </r>
       <r>    15.3472     0.4192    23.4456 </r>
       <r>    15.4347     0.3847    23.4793 </r>
       <r>    15.5222     0.3691    23.5116 </r>
       <r>    15.6096     0.3675    23.5437 </r>
       <r>    15.6971     0.3488    23.5742 </r>
       <r>    15.7846     0.3086    23.6012 </r>
       <r>    15.8720     0.2824    23.6259 </r>
       <r>    15.9595     0.2849    23.6508 </r>
       <r>    16.0469     0.2932    23.6764 </r>
       <r>    16.1344     0.2798    23.7009 </r>
       <r>    16.2219     0.2448    23.7223 </r>
       <r>    16.3093     0.2139    23.7410 </r>
       <r>    16.3968     0.2053    23.7590 </r>
       <r>    16.4843     0.2154    23.7778 </r>
       <r>    16.5717     0.2209    23.7972 </r>
       <r>    16.6592     0.2028    23.8149 </r>
       <r>    16.7467     0.1766    23.8303 </r>
       <r>    16.8341     0.1659    23.8448 </r>
       <r>    16.9216     0.1653    23.8593 </r>
       <r>    17.0090     0.1565    23.8730 </r>
       <r>    17.0965     0.1357    23.8848 </r>
       <r>    17.1840     0.1190    23.8953 </r>
       <r>    17.2714     0.1158    23.9054 </r>
       <r>    17.3589     0.1142    23.9154 </r>
       <r>    17.4464     0.1061    23.9246 </r>
       <r>    17.5338     0.0934    23.9328 </r>
       <r>    17.6213     0.0828    23.9401 </r>
       <r>    17.7088     0.0795    23.9470 </r>
       <r>    17.7962     0.0785    23.9539 </r>
       <r>    17.8837     0.0730    23.9603 </r>
       <r>    17.9711     0.0629    23.9658 </r>
       <r>    18.0586     0.0546    23.9705 </r>
       <r>    18.1461     0.0530    23.9752 </r>
       <r>    18.2335     0.0528    23.9798 </r>
       <r>    18.3210     0.0481    23.9840 </r>
       <r>    18.4085     0.0399    23.9875 </r>
       <r>    18.4959     0.0315    23.9902 </r>
       <r>    18.5834     0.0249    23.9924 </r>
       <r>    18.6709     0.0205    23.9942 </r>
       <r>    18.7583     0.0165    23.9957 </r>
       <r>    18.8458     0.0119    23.9967 </r>
       <r>    18.9333     0.0083    23.9974 </r>
       <r>    19.0207     0.0079    23.9981 </r>
       <r>    19.1082     0.0094    23.9989 </r>
       <r>    19.1956     0.0084    23.9997 </r>
       <r>    19.2831     0.0042    24.0000 </r>
       <r>    19.3706     0.0006    24.0001 </r>
       <r>    19.4580    -0.0005    24.0000 </r>
       <r>    19.5455    -0.0003    24.0000 </r>
       <r>    19.6330    -0.0001    24.0000 </r>
       <r>    19.7204    -0.0000    24.0000 </r>
       <r>    19.8079    -0.0000    24.0000 </r>
       <r>    19.8954    -0.0000    24.0000 </r>
       <r>    19.9828    -0.0000    24.0000 </r>
       <r>    20.0703    -0.0000    24.0000 </r>
       <r>    20.1577    -0.0000    24.0000 </r>
       <r>    20.2452    -0.0000    24.0000 </r>
       <r>    20.3327    -0.0000    24.0000 </r>
       <r>    20.4201    -0.0000    24.0000 </r>
       <r>    20.5076     0.0000    24.0000 </r>
       <r>    20.5951     0.0000    24.0000 </r>
       <r>    20.6825     0.0000    24.0000 </r>
       <r>    20.7700     0.0000    24.0000 </r>
       <r>    20.8575     0.0000    24.0000 </r>
       <r>    20.9449     0.0000    24.0000 </r>
       <r>    21.0324     0.0000    24.0000 </r>
       <r>    21.1198     0.0000    24.0000 </r>
      </set>
     </set>
    </array>
   </total>
  </dos>
 </calculation>
 <structure name="finalpos" >
  <crystal>
   <varray name="basis" >
    <v>       4.03879899       0.00000000       0.00000000 </v>
    <v>       0.00000000       4.03879899       0.00000000 </v>
    <v>      -0.00000000      -0.00000000       4.03879899 </v>
   </varray>
   <i name="volume">     65.88047410 </i>
   <varray name="rec_basis" >
    <v>       0.24759836      -0.00000000       0.00000000 </v>
    <v>      -0.00000000       0.24759836       0.00000000 </v>
    <v>      -0.00000000      -0.00000000       0.24759836 </v>
   </varray>
  </crystal>
  <varray name="positions" >
   <v>      -0.00000000       0.00000000       0.00000000 </v>
   <v>       0.00000000       0.50000000       0.50000000 </v>
   <v>       0.50000000       0.00000000       0.50000000 </v>
   <v>       0.50000000       0.50000000      -0.00000000 </v>
  </varray>
 </structure>
</modeling>
