 ----------------------------------------------------
    OOO  PPPP  EEEEE N   N M   M PPPP
   O   O P   P E     NN  N MM MM P   P
   O   O PPPP  EEEEE N N N M M M PPPP   -- VERSION
   O   O P     E     N  NN M   M P
    OOO  P     EEEEE N   N M   M P
 ----------------------------------------------------
 running   48 mpi-ranks, with    1 threads/rank
 distrk:  each k-point on   48 cores,    1 groups
 distr:  one band on   12 cores,    4 groups
 vasp.6.3.2 27Jun22 (build Aug 12 2022 00:53:59) complex                        
  
 POSCAR found type information on POSCAR Al
 POSCAR found :  1 types and       4 ions
 Reading from existing POTCAR
 scaLAPACK will be used
 Reading from existing POTCAR
 LDA part: xc-table for Pade appr. of Perdew
 POSCAR, INCAR and KPOINTS ok, starting setup
 FFT: planning ... GRIDC
 FFT: planning ... GRID_SOFT
 FFT: planning ... GRID
 WAVECAR not read
 entering main loop
       N       E                     dE             d eps       ncg     rms          rms(c)
DAV:   1     0.990320380894E+00    0.99032E+00   -0.29831E+03 16540   0.476E+02
DAV:   2    -0.145900595354E+02   -0.15580E+02   -0.14507E+02 20828   0.738E+01
DAV:   3    -0.150562422576E+02   -0.46618E+00   -0.46019E+00 20992   0.108E+01
DAV:   4    -0.150586748279E+02   -0.24326E-02   -0.24309E-02 18316   0.101E+00
DAV:   5    -0.150586926693E+02   -0.17841E-04   -0.17842E-04 20624   0.864E-02    0.272E+00
DAV:   6    -0.150069434743E+02    0.51749E-01   -0.58013E-03 17968   0.456E-01    0.158E+00
DAV:   7    -0.149688615063E+02    0.38082E-01   -0.16936E-02 17896   0.729E-01    0.275E-01
DAV:   8    -0.149687483647E+02    0.11314E-03   -0.16023E-04 20568   0.956E-02    0.400E-02
DAV:   9    -0.149687387090E+02    0.96556E-05   -0.63455E-06 19152   0.149E-02    0.424E-03
DAV:  10    -0.149687373097E+02    0.13994E-05   -0.45881E-08 20852   0.184E-03    0.331E-03
DAV:  11    -0.149687365994E+02    0.71025E-06   -0.22534E-09 17992   0.395E-04    0.643E-05
DAV:  12    -0.149687366114E+02   -0.11935E-07   -0.71412E-11 12516   0.582E-05    0.131E-04
DAV:  13    -0.149687366455E+02   -0.34102E-07   -0.15491E-11 11164   0.288E-05    0.197E-05
DAV:  14    -0.149687366440E+02    0.14818E-08   -0.16688E-12 10676   0.795E-06
   1 F= -.14968737E+02 E0= -.14968675E+02  d E =-.149687E+02
 curvature:   0.00 expect dE= 0.000E+00 dE for cont linesearch  0.000E+00
 trial: gam= 0.00000 g(F)=  0.981E-63 g(S)=  0.000E+00 ort = 0.000E+00 (trialstep = 0.100E+01)
 search vector abs. value=  0.100E-09
 reached required accuracy - stopping structural energy minimisation
