 ----------------------------------------------------
    OOO  PPPP  EEEEE N   N M   M PPPP
   O   O P   P E     NN  N MM MM P   P
   O   O PPPP  EEEEE N N N M M M PPPP   -- VERSION
   O   O P     E     N  NN M   M P
    OOO  P     EEEEE N   N M   M P
 ----------------------------------------------------
 running   48 mpi-ranks, with    1 threads/rank
 distrk:  each k-point on   48 cores,    1 groups
 distr:  one band on   12 cores,    4 groups
 vasp.6.3.2 27Jun22 (build Aug 12 2022 00:53:59) complex                        
  
 POSCAR found type information on POSCAR Al
 POSCAR found :  1 types and       4 ions
 Reading from existing POTCAR
 scaLAPACK will be used
 Reading from existing POTCAR
 LDA part: xc-table for Pade appr. of Perdew
 POSCAR, INCAR and KPOINTS ok, starting setup
 FFT: planning ... GRIDC
 FFT: planning ... GRID_SOFT
 FFT: planning ... GRID
 WAVECAR not read
 entering main loop
       N       E                     dE             d eps       ncg     rms          rms(c)
DAV:   1     0.497680258464E+00    0.49768E+00   -0.28992E+03 16472   0.470E+02
DAV:   2    -0.143940231584E+02   -0.14892E+02   -0.13899E+02 20848   0.707E+01
DAV:   3    -0.148575729722E+02   -0.46355E+00   -0.45739E+00 21004   0.106E+01
DAV:   4    -0.148601544094E+02   -0.25814E-02   -0.25804E-02 18468   0.105E+00
DAV:   5    -0.148601751768E+02   -0.20767E-04   -0.20767E-04 20696   0.932E-02    0.235E+00
DAV:   6    -0.148120684251E+02    0.48107E-01   -0.78844E-03 18132   0.531E-01    0.137E+00
DAV:   7    -0.147768499631E+02    0.35218E-01   -0.22547E-02 18176   0.843E-01    0.250E-01
DAV:   8    -0.147767522276E+02    0.97735E-04   -0.18412E-04 20284   0.104E-01    0.165E-02
DAV:   9    -0.147767450398E+02    0.71878E-05   -0.73826E-06 19276   0.145E-02    0.304E-03
DAV:  10    -0.147767426230E+02    0.24168E-05   -0.65204E-08 21208   0.199E-03    0.141E-03
DAV:  11    -0.147767417102E+02    0.91279E-06   -0.44201E-09 19492   0.524E-04    0.710E-05
DAV:  12    -0.147767417453E+02   -0.35088E-07   -0.13902E-10 12796   0.804E-05    0.808E-05
DAV:  13    -0.147767417674E+02   -0.22116E-07   -0.56939E-12 11444   0.185E-05    0.591E-06
DAV:  14    -0.147767417635E+02    0.38776E-08   -0.93206E-13 11032   0.734E-06
   1 F= -.14776742E+02 E0= -.14776633E+02  d E =-.147767E+02
 curvature:   0.00 expect dE= 0.000E+00 dE for cont linesearch  0.000E+00
 trial: gam= 0.00000 g(F)=  0.965E-63 g(S)=  0.000E+00 ort = 0.000E+00 (trialstep = 0.100E+01)
 search vector abs. value=  0.100E-09
 reached required accuracy - stopping structural energy minimisation
