<?xml version="1.0" encoding="ISO-8859-1"?>
<modeling>
 <generator>
  <i name="program" type="string">vasp </i>
  <i name="version" type="string">6.3.2  </i>
  <i name="subversion" type="string">27Jun22 (build Aug 12 2022 00:53:59) complex                          parallel </i>
  <i name="platform" type="string">tv2STD </i>
  <i name="date" type="string">2025 07 01 </i>
  <i name="time" type="string">00:11:43 </i>
 </generator>
 <incar>
  <i type="string" name="PREC">Accurate</i>
  <i type="string" name="ALGO">Normal</i>
  <i type="logical" name="ADDGRID"> T  </i>
  <i type="int" name="NELM">   300</i>
  <i type="int" name="NELMIN">     5</i>
  <i type="int" name="IBRION">     2</i>
  <i name="EDIFF">      0.00000001</i>
  <i name="EDIFFG">     -0.00000001</i>
  <i type="int" name="NSW">   500</i>
  <i type="int" name="ISIF">     2</i>
  <i name="ENCUT">    300.00000000</i>
  <i type="logical" name="LREAL"> F  </i>
  <i type="int" name="ISMEAR">     1</i>
  <i name="SIGMA">      0.20000000</i>
  <i type="logical" name="LWAVE"> F  </i>
  <i type="logical" name="LCHARG"> F  </i>
 </incar>
 <primitive_cell>
  <structure name="primitive_cell" >
   <crystal>
    <varray name="basis" >
     <v>       2.10017547      -2.10017547       0.00000000 </v>
     <v>       2.10017547       0.00000000       2.10017547 </v>
     <v>       0.00000000      -2.10017547       2.10017547 </v>
    </varray>
    <i name="volume">     18.52664340 </i>
    <varray name="rec_basis" >
     <v>       0.23807534      -0.23807534      -0.23807534 </v>
     <v>       0.23807534       0.23807534       0.23807534 </v>
     <v>      -0.23807534      -0.23807534       0.23807534 </v>
    </varray>
   </crystal>
   <varray name="positions" >
    <v>       0.00000000       0.00000000       0.00000000 </v>
   </varray>
  </structure>
  <varray name="primitive_index" >
   <v type="int" >        1 </v>
  </varray>
 </primitive_cell>
 <kpoints>
  <generation param="Monkhorst-Pack">
   <v type="int" name="divisions">      30       30       30 </v>
   <v name="usershift">      0.00000000       0.00000000       0.00000000 </v>
   <v name="genvec1">      0.03333333       0.00000000       0.00000000 </v>
   <v name="genvec2">      0.00000000       0.03333333       0.00000000 </v>
   <v name="genvec3">      0.00000000       0.00000000       0.03333333 </v>
   <v name="shift">      0.50000000       0.50000000       0.50000000 </v>
  </generation>
  <varray name="kpointlist" >
   <v>       0.01666667       0.01666667       0.01666667 </v>
   <v>       0.05000000       0.01666667       0.01666667 </v>
   <v>       0.08333333       0.01666667       0.01666667 </v>
   <v>       0.11666667       0.01666667       0.01666667 </v>
   <v>       0.15000000       0.01666667       0.01666667 </v>
   <v>       0.18333333       0.01666667       0.01666667 </v>
   <v>       0.21666667       0.01666667       0.01666667 </v>
   <v>       0.25000000       0.01666667       0.01666667 </v>
   <v>       0.28333333       0.01666667       0.01666667 </v>
   <v>       0.31666667       0.01666667       0.01666667 </v>
   <v>       0.35000000       0.01666667       0.01666667 </v>
   <v>       0.38333333       0.01666667       0.01666667 </v>
   <v>       0.41666667       0.01666667       0.01666667 </v>
   <v>       0.45000000       0.01666667       0.01666667 </v>
   <v>       0.48333333       0.01666667       0.01666667 </v>
   <v>       0.05000000       0.05000000       0.01666667 </v>
   <v>       0.08333333       0.05000000       0.01666667 </v>
   <v>       0.11666667       0.05000000       0.01666667 </v>
   <v>       0.15000000       0.05000000       0.01666667 </v>
   <v>       0.18333333       0.05000000       0.01666667 </v>
   <v>       0.21666667       0.05000000       0.01666667 </v>
   <v>       0.25000000       0.05000000       0.01666667 </v>
   <v>       0.28333333       0.05000000       0.01666667 </v>
   <v>       0.31666667       0.05000000       0.01666667 </v>
   <v>       0.35000000       0.05000000       0.01666667 </v>
   <v>       0.38333333       0.05000000       0.01666667 </v>
   <v>       0.41666667       0.05000000       0.01666667 </v>
   <v>       0.45000000       0.05000000       0.01666667 </v>
   <v>       0.48333333       0.05000000       0.01666667 </v>
   <v>       0.08333333       0.08333333       0.01666667 </v>
   <v>       0.11666667       0.08333333       0.01666667 </v>
   <v>       0.15000000       0.08333333       0.01666667 </v>
   <v>       0.18333333       0.08333333       0.01666667 </v>
   <v>       0.21666667       0.08333333       0.01666667 </v>
   <v>       0.25000000       0.08333333       0.01666667 </v>
   <v>       0.28333333       0.08333333       0.01666667 </v>
   <v>       0.31666667       0.08333333       0.01666667 </v>
   <v>       0.35000000       0.08333333       0.01666667 </v>
   <v>       0.38333333       0.08333333       0.01666667 </v>
   <v>       0.41666667       0.08333333       0.01666667 </v>
   <v>       0.45000000       0.08333333       0.01666667 </v>
   <v>       0.48333333       0.08333333       0.01666667 </v>
   <v>       0.11666667       0.11666667       0.01666667 </v>
   <v>       0.15000000       0.11666667       0.01666667 </v>
   <v>       0.18333333       0.11666667       0.01666667 </v>
   <v>       0.21666667       0.11666667       0.01666667 </v>
   <v>       0.25000000       0.11666667       0.01666667 </v>
   <v>       0.28333333       0.11666667       0.01666667 </v>
   <v>       0.31666667       0.11666667       0.01666667 </v>
   <v>       0.35000000       0.11666667       0.01666667 </v>
   <v>       0.38333333       0.11666667       0.01666667 </v>
   <v>       0.41666667       0.11666667       0.01666667 </v>
   <v>       0.45000000       0.11666667       0.01666667 </v>
   <v>       0.48333333       0.11666667       0.01666667 </v>
   <v>       0.15000000       0.15000000       0.01666667 </v>
   <v>       0.18333333       0.15000000       0.01666667 </v>
   <v>       0.21666667       0.15000000       0.01666667 </v>
   <v>       0.25000000       0.15000000       0.01666667 </v>
   <v>       0.28333333       0.15000000       0.01666667 </v>
   <v>       0.31666667       0.15000000       0.01666667 </v>
   <v>       0.35000000       0.15000000       0.01666667 </v>
   <v>       0.38333333       0.15000000       0.01666667 </v>
   <v>       0.41666667       0.15000000       0.01666667 </v>
   <v>       0.45000000       0.15000000       0.01666667 </v>
   <v>       0.48333333       0.15000000       0.01666667 </v>
   <v>       0.18333333       0.18333333       0.01666667 </v>
   <v>       0.21666667       0.18333333       0.01666667 </v>
   <v>       0.25000000       0.18333333       0.01666667 </v>
   <v>       0.28333333       0.18333333       0.01666667 </v>
   <v>       0.31666667       0.18333333       0.01666667 </v>
   <v>       0.35000000       0.18333333       0.01666667 </v>
   <v>       0.38333333       0.18333333       0.01666667 </v>
   <v>       0.41666667       0.18333333       0.01666667 </v>
   <v>       0.45000000       0.18333333       0.01666667 </v>
   <v>       0.48333333       0.18333333       0.01666667 </v>
   <v>       0.21666667       0.21666667       0.01666667 </v>
   <v>       0.25000000       0.21666667       0.01666667 </v>
   <v>       0.28333333       0.21666667       0.01666667 </v>
   <v>       0.31666667       0.21666667       0.01666667 </v>
   <v>       0.35000000       0.21666667       0.01666667 </v>
   <v>       0.38333333       0.21666667       0.01666667 </v>
   <v>       0.41666667       0.21666667       0.01666667 </v>
   <v>       0.45000000       0.21666667       0.01666667 </v>
   <v>       0.48333333       0.21666667       0.01666667 </v>
   <v>       0.25000000       0.25000000       0.01666667 </v>
   <v>       0.28333333       0.25000000       0.01666667 </v>
   <v>       0.31666667       0.25000000       0.01666667 </v>
   <v>       0.35000000       0.25000000       0.01666667 </v>
   <v>       0.38333333       0.25000000       0.01666667 </v>
   <v>       0.41666667       0.25000000       0.01666667 </v>
   <v>       0.45000000       0.25000000       0.01666667 </v>
   <v>       0.48333333       0.25000000       0.01666667 </v>
   <v>       0.28333333       0.28333333       0.01666667 </v>
   <v>       0.31666667       0.28333333       0.01666667 </v>
   <v>       0.35000000       0.28333333       0.01666667 </v>
   <v>       0.38333333       0.28333333       0.01666667 </v>
   <v>       0.41666667       0.28333333       0.01666667 </v>
   <v>       0.45000000       0.28333333       0.01666667 </v>
   <v>       0.48333333       0.28333333       0.01666667 </v>
   <v>       0.31666667       0.31666667       0.01666667 </v>
   <v>       0.35000000       0.31666667       0.01666667 </v>
   <v>       0.38333333       0.31666667       0.01666667 </v>
   <v>       0.41666667       0.31666667       0.01666667 </v>
   <v>       0.45000000       0.31666667       0.01666667 </v>
   <v>       0.48333333       0.31666667       0.01666667 </v>
   <v>       0.35000000       0.35000000       0.01666667 </v>
   <v>       0.38333333       0.35000000       0.01666667 </v>
   <v>       0.41666667       0.35000000       0.01666667 </v>
   <v>       0.45000000       0.35000000       0.01666667 </v>
   <v>       0.48333333       0.35000000       0.01666667 </v>
   <v>       0.38333333       0.38333333       0.01666667 </v>
   <v>       0.41666667       0.38333333       0.01666667 </v>
   <v>       0.45000000       0.38333333       0.01666667 </v>
   <v>       0.48333333       0.38333333       0.01666667 </v>
   <v>       0.41666667       0.41666667       0.01666667 </v>
   <v>       0.45000000       0.41666667       0.01666667 </v>
   <v>       0.48333333       0.41666667       0.01666667 </v>
   <v>       0.45000000       0.45000000       0.01666667 </v>
   <v>       0.48333333       0.45000000       0.01666667 </v>
   <v>       0.48333333       0.48333333       0.01666667 </v>
   <v>       0.05000000       0.05000000       0.05000000 </v>
   <v>       0.08333333       0.05000000       0.05000000 </v>
   <v>       0.11666667       0.05000000       0.05000000 </v>
   <v>       0.15000000       0.05000000       0.05000000 </v>
   <v>       0.18333333       0.05000000       0.05000000 </v>
   <v>       0.21666667       0.05000000       0.05000000 </v>
   <v>       0.25000000       0.05000000       0.05000000 </v>
   <v>       0.28333333       0.05000000       0.05000000 </v>
   <v>       0.31666667       0.05000000       0.05000000 </v>
   <v>       0.35000000       0.05000000       0.05000000 </v>
   <v>       0.38333333       0.05000000       0.05000000 </v>
   <v>       0.41666667       0.05000000       0.05000000 </v>
   <v>       0.45000000       0.05000000       0.05000000 </v>
   <v>       0.48333333       0.05000000       0.05000000 </v>
   <v>       0.08333333       0.08333333       0.05000000 </v>
   <v>       0.11666667       0.08333333       0.05000000 </v>
   <v>       0.15000000       0.08333333       0.05000000 </v>
   <v>       0.18333333       0.08333333       0.05000000 </v>
   <v>       0.21666667       0.08333333       0.05000000 </v>
   <v>       0.25000000       0.08333333       0.05000000 </v>
   <v>       0.28333333       0.08333333       0.05000000 </v>
   <v>       0.31666667       0.08333333       0.05000000 </v>
   <v>       0.35000000       0.08333333       0.05000000 </v>
   <v>       0.38333333       0.08333333       0.05000000 </v>
   <v>       0.41666667       0.08333333       0.05000000 </v>
   <v>       0.45000000       0.08333333       0.05000000 </v>
   <v>       0.48333333       0.08333333       0.05000000 </v>
   <v>       0.11666667       0.11666667       0.05000000 </v>
   <v>       0.15000000       0.11666667       0.05000000 </v>
   <v>       0.18333333       0.11666667       0.05000000 </v>
   <v>       0.21666667       0.11666667       0.05000000 </v>
   <v>       0.25000000       0.11666667       0.05000000 </v>
   <v>       0.28333333       0.11666667       0.05000000 </v>
   <v>       0.31666667       0.11666667       0.05000000 </v>
   <v>       0.35000000       0.11666667       0.05000000 </v>
   <v>       0.38333333       0.11666667       0.05000000 </v>
   <v>       0.41666667       0.11666667       0.05000000 </v>
   <v>       0.45000000       0.11666667       0.05000000 </v>
   <v>       0.48333333       0.11666667       0.05000000 </v>
   <v>       0.15000000       0.15000000       0.05000000 </v>
   <v>       0.18333333       0.15000000       0.05000000 </v>
   <v>       0.21666667       0.15000000       0.05000000 </v>
   <v>       0.25000000       0.15000000       0.05000000 </v>
   <v>       0.28333333       0.15000000       0.05000000 </v>
   <v>       0.31666667       0.15000000       0.05000000 </v>
   <v>       0.35000000       0.15000000       0.05000000 </v>
   <v>       0.38333333       0.15000000       0.05000000 </v>
   <v>       0.41666667       0.15000000       0.05000000 </v>
   <v>       0.45000000       0.15000000       0.05000000 </v>
   <v>       0.48333333       0.15000000       0.05000000 </v>
   <v>       0.18333333       0.18333333       0.05000000 </v>
   <v>       0.21666667       0.18333333       0.05000000 </v>
   <v>       0.25000000       0.18333333       0.05000000 </v>
   <v>       0.28333333       0.18333333       0.05000000 </v>
   <v>       0.31666667       0.18333333       0.05000000 </v>
   <v>       0.35000000       0.18333333       0.05000000 </v>
   <v>       0.38333333       0.18333333       0.05000000 </v>
   <v>       0.41666667       0.18333333       0.05000000 </v>
   <v>       0.45000000       0.18333333       0.05000000 </v>
   <v>       0.48333333       0.18333333       0.05000000 </v>
   <v>       0.21666667       0.21666667       0.05000000 </v>
   <v>       0.25000000       0.21666667       0.05000000 </v>
   <v>       0.28333333       0.21666667       0.05000000 </v>
   <v>       0.31666667       0.21666667       0.05000000 </v>
   <v>       0.35000000       0.21666667       0.05000000 </v>
   <v>       0.38333333       0.21666667       0.05000000 </v>
   <v>       0.41666667       0.21666667       0.05000000 </v>
   <v>       0.45000000       0.21666667       0.05000000 </v>
   <v>       0.48333333       0.21666667       0.05000000 </v>
   <v>       0.25000000       0.25000000       0.05000000 </v>
   <v>       0.28333333       0.25000000       0.05000000 </v>
   <v>       0.31666667       0.25000000       0.05000000 </v>
   <v>       0.35000000       0.25000000       0.05000000 </v>
   <v>       0.38333333       0.25000000       0.05000000 </v>
   <v>       0.41666667       0.25000000       0.05000000 </v>
   <v>       0.45000000       0.25000000       0.05000000 </v>
   <v>       0.48333333       0.25000000       0.05000000 </v>
   <v>       0.28333333       0.28333333       0.05000000 </v>
   <v>       0.31666667       0.28333333       0.05000000 </v>
   <v>       0.35000000       0.28333333       0.05000000 </v>
   <v>       0.38333333       0.28333333       0.05000000 </v>
   <v>       0.41666667       0.28333333       0.05000000 </v>
   <v>       0.45000000       0.28333333       0.05000000 </v>
   <v>       0.48333333       0.28333333       0.05000000 </v>
   <v>       0.31666667       0.31666667       0.05000000 </v>
   <v>       0.35000000       0.31666667       0.05000000 </v>
   <v>       0.38333333       0.31666667       0.05000000 </v>
   <v>       0.41666667       0.31666667       0.05000000 </v>
   <v>       0.45000000       0.31666667       0.05000000 </v>
   <v>       0.48333333       0.31666667       0.05000000 </v>
   <v>       0.35000000       0.35000000       0.05000000 </v>
   <v>       0.38333333       0.35000000       0.05000000 </v>
   <v>       0.41666667       0.35000000       0.05000000 </v>
   <v>       0.45000000       0.35000000       0.05000000 </v>
   <v>       0.48333333       0.35000000       0.05000000 </v>
   <v>       0.38333333       0.38333333       0.05000000 </v>
   <v>       0.41666667       0.38333333       0.05000000 </v>
   <v>       0.45000000       0.38333333       0.05000000 </v>
   <v>       0.48333333       0.38333333       0.05000000 </v>
   <v>       0.41666667       0.41666667       0.05000000 </v>
   <v>       0.45000000       0.41666667       0.05000000 </v>
   <v>       0.48333333       0.41666667       0.05000000 </v>
   <v>       0.45000000       0.45000000       0.05000000 </v>
   <v>       0.48333333       0.45000000       0.05000000 </v>
   <v>       0.48333333       0.48333333       0.05000000 </v>
   <v>       0.08333333       0.08333333       0.08333333 </v>
   <v>       0.11666667       0.08333333       0.08333333 </v>
   <v>       0.15000000       0.08333333       0.08333333 </v>
   <v>       0.18333333       0.08333333       0.08333333 </v>
   <v>       0.21666667       0.08333333       0.08333333 </v>
   <v>       0.25000000       0.08333333       0.08333333 </v>
   <v>       0.28333333       0.08333333       0.08333333 </v>
   <v>       0.31666667       0.08333333       0.08333333 </v>
   <v>       0.35000000       0.08333333       0.08333333 </v>
   <v>       0.38333333       0.08333333       0.08333333 </v>
   <v>       0.41666667       0.08333333       0.08333333 </v>
   <v>       0.45000000       0.08333333       0.08333333 </v>
   <v>       0.48333333       0.08333333       0.08333333 </v>
   <v>       0.11666667       0.11666667       0.08333333 </v>
   <v>       0.15000000       0.11666667       0.08333333 </v>
   <v>       0.18333333       0.11666667       0.08333333 </v>
   <v>       0.21666667       0.11666667       0.08333333 </v>
   <v>       0.25000000       0.11666667       0.08333333 </v>
   <v>       0.28333333       0.11666667       0.08333333 </v>
   <v>       0.31666667       0.11666667       0.08333333 </v>
   <v>       0.35000000       0.11666667       0.08333333 </v>
   <v>       0.38333333       0.11666667       0.08333333 </v>
   <v>       0.41666667       0.11666667       0.08333333 </v>
   <v>       0.45000000       0.11666667       0.08333333 </v>
   <v>       0.48333333       0.11666667       0.08333333 </v>
   <v>       0.15000000       0.15000000       0.08333333 </v>
   <v>       0.18333333       0.15000000       0.08333333 </v>
   <v>       0.21666667       0.15000000       0.08333333 </v>
   <v>       0.25000000       0.15000000       0.08333333 </v>
   <v>       0.28333333       0.15000000       0.08333333 </v>
   <v>       0.31666667       0.15000000       0.08333333 </v>
   <v>       0.35000000       0.15000000       0.08333333 </v>
   <v>       0.38333333       0.15000000       0.08333333 </v>
   <v>       0.41666667       0.15000000       0.08333333 </v>
   <v>       0.45000000       0.15000000       0.08333333 </v>
   <v>       0.48333333       0.15000000       0.08333333 </v>
   <v>       0.18333333       0.18333333       0.08333333 </v>
   <v>       0.21666667       0.18333333       0.08333333 </v>
   <v>       0.25000000       0.18333333       0.08333333 </v>
   <v>       0.28333333       0.18333333       0.08333333 </v>
   <v>       0.31666667       0.18333333       0.08333333 </v>
   <v>       0.35000000       0.18333333       0.08333333 </v>
   <v>       0.38333333       0.18333333       0.08333333 </v>
   <v>       0.41666667       0.18333333       0.08333333 </v>
   <v>       0.45000000       0.18333333       0.08333333 </v>
   <v>       0.48333333       0.18333333       0.08333333 </v>
   <v>       0.21666667       0.21666667       0.08333333 </v>
   <v>       0.25000000       0.21666667       0.08333333 </v>
   <v>       0.28333333       0.21666667       0.08333333 </v>
   <v>       0.31666667       0.21666667       0.08333333 </v>
   <v>       0.35000000       0.21666667       0.08333333 </v>
   <v>       0.38333333       0.21666667       0.08333333 </v>
   <v>       0.41666667       0.21666667       0.08333333 </v>
   <v>       0.45000000       0.21666667       0.08333333 </v>
   <v>       0.48333333       0.21666667       0.08333333 </v>
   <v>       0.25000000       0.25000000       0.08333333 </v>
   <v>       0.28333333       0.25000000       0.08333333 </v>
   <v>       0.31666667       0.25000000       0.08333333 </v>
   <v>       0.35000000       0.25000000       0.08333333 </v>
   <v>       0.38333333       0.25000000       0.08333333 </v>
   <v>       0.41666667       0.25000000       0.08333333 </v>
   <v>       0.45000000       0.25000000       0.08333333 </v>
   <v>       0.48333333       0.25000000       0.08333333 </v>
   <v>       0.28333333       0.28333333       0.08333333 </v>
   <v>       0.31666667       0.28333333       0.08333333 </v>
   <v>       0.35000000       0.28333333       0.08333333 </v>
   <v>       0.38333333       0.28333333       0.08333333 </v>
   <v>       0.41666667       0.28333333       0.08333333 </v>
   <v>       0.45000000       0.28333333       0.08333333 </v>
   <v>       0.48333333       0.28333333       0.08333333 </v>
   <v>       0.31666667       0.31666667       0.08333333 </v>
   <v>       0.35000000       0.31666667       0.08333333 </v>
   <v>       0.38333333       0.31666667       0.08333333 </v>
   <v>       0.41666667       0.31666667       0.08333333 </v>
   <v>       0.45000000       0.31666667       0.08333333 </v>
   <v>       0.48333333       0.31666667       0.08333333 </v>
   <v>       0.35000000       0.35000000       0.08333333 </v>
   <v>       0.38333333       0.35000000       0.08333333 </v>
   <v>       0.41666667       0.35000000       0.08333333 </v>
   <v>       0.45000000       0.35000000       0.08333333 </v>
   <v>       0.48333333       0.35000000       0.08333333 </v>
   <v>       0.38333333       0.38333333       0.08333333 </v>
   <v>       0.41666667       0.38333333       0.08333333 </v>
   <v>       0.45000000       0.38333333       0.08333333 </v>
   <v>       0.48333333       0.38333333       0.08333333 </v>
   <v>       0.41666667       0.41666667       0.08333333 </v>
   <v>       0.45000000       0.41666667       0.08333333 </v>
   <v>       0.48333333       0.41666667       0.08333333 </v>
   <v>       0.45000000       0.45000000       0.08333333 </v>
   <v>       0.48333333       0.45000000       0.08333333 </v>
   <v>       0.48333333       0.48333333       0.08333333 </v>
   <v>       0.11666667       0.11666667       0.11666667 </v>
   <v>       0.15000000       0.11666667       0.11666667 </v>
   <v>       0.18333333       0.11666667       0.11666667 </v>
   <v>       0.21666667       0.11666667       0.11666667 </v>
   <v>       0.25000000       0.11666667       0.11666667 </v>
   <v>       0.28333333       0.11666667       0.11666667 </v>
   <v>       0.31666667       0.11666667       0.11666667 </v>
   <v>       0.35000000       0.11666667       0.11666667 </v>
   <v>       0.38333333       0.11666667       0.11666667 </v>
   <v>       0.41666667       0.11666667       0.11666667 </v>
   <v>       0.45000000       0.11666667       0.11666667 </v>
   <v>       0.48333333       0.11666667       0.11666667 </v>
   <v>       0.15000000       0.15000000       0.11666667 </v>
   <v>       0.18333333       0.15000000       0.11666667 </v>
   <v>       0.21666667       0.15000000       0.11666667 </v>
   <v>       0.25000000       0.15000000       0.11666667 </v>
   <v>       0.28333333       0.15000000       0.11666667 </v>
   <v>       0.31666667       0.15000000       0.11666667 </v>
   <v>       0.35000000       0.15000000       0.11666667 </v>
   <v>       0.38333333       0.15000000       0.11666667 </v>
   <v>       0.41666667       0.15000000       0.11666667 </v>
   <v>       0.45000000       0.15000000       0.11666667 </v>
   <v>       0.48333333       0.15000000       0.11666667 </v>
   <v>       0.18333333       0.18333333       0.11666667 </v>
   <v>       0.21666667       0.18333333       0.11666667 </v>
   <v>       0.25000000       0.18333333       0.11666667 </v>
   <v>       0.28333333       0.18333333       0.11666667 </v>
   <v>       0.31666667       0.18333333       0.11666667 </v>
   <v>       0.35000000       0.18333333       0.11666667 </v>
   <v>       0.38333333       0.18333333       0.11666667 </v>
   <v>       0.41666667       0.18333333       0.11666667 </v>
   <v>       0.45000000       0.18333333       0.11666667 </v>
   <v>       0.48333333       0.18333333       0.11666667 </v>
   <v>       0.21666667       0.21666667       0.11666667 </v>
   <v>       0.25000000       0.21666667       0.11666667 </v>
   <v>       0.28333333       0.21666667       0.11666667 </v>
   <v>       0.31666667       0.21666667       0.11666667 </v>
   <v>       0.35000000       0.21666667       0.11666667 </v>
   <v>       0.38333333       0.21666667       0.11666667 </v>
   <v>       0.41666667       0.21666667       0.11666667 </v>
   <v>       0.45000000       0.21666667       0.11666667 </v>
   <v>       0.48333333       0.21666667       0.11666667 </v>
   <v>       0.25000000       0.25000000       0.11666667 </v>
   <v>       0.28333333       0.25000000       0.11666667 </v>
   <v>       0.31666667       0.25000000       0.11666667 </v>
   <v>       0.35000000       0.25000000       0.11666667 </v>
   <v>       0.38333333       0.25000000       0.11666667 </v>
   <v>       0.41666667       0.25000000       0.11666667 </v>
   <v>       0.45000000       0.25000000       0.11666667 </v>
   <v>       0.48333333       0.25000000       0.11666667 </v>
   <v>       0.28333333       0.28333333       0.11666667 </v>
   <v>       0.31666667       0.28333333       0.11666667 </v>
   <v>       0.35000000       0.28333333       0.11666667 </v>
   <v>       0.38333333       0.28333333       0.11666667 </v>
   <v>       0.41666667       0.28333333       0.11666667 </v>
   <v>       0.45000000       0.28333333       0.11666667 </v>
   <v>       0.48333333       0.28333333       0.11666667 </v>
   <v>       0.31666667       0.31666667       0.11666667 </v>
   <v>       0.35000000       0.31666667       0.11666667 </v>
   <v>       0.38333333       0.31666667       0.11666667 </v>
   <v>       0.41666667       0.31666667       0.11666667 </v>
   <v>       0.45000000       0.31666667       0.11666667 </v>
   <v>       0.48333333       0.31666667       0.11666667 </v>
   <v>       0.35000000       0.35000000       0.11666667 </v>
   <v>       0.38333333       0.35000000       0.11666667 </v>
   <v>       0.41666667       0.35000000       0.11666667 </v>
   <v>       0.45000000       0.35000000       0.11666667 </v>
   <v>       0.48333333       0.35000000       0.11666667 </v>
   <v>       0.38333333       0.38333333       0.11666667 </v>
   <v>       0.41666667       0.38333333       0.11666667 </v>
   <v>       0.45000000       0.38333333       0.11666667 </v>
   <v>       0.48333333       0.38333333       0.11666667 </v>
   <v>       0.41666667       0.41666667       0.11666667 </v>
   <v>       0.45000000       0.41666667       0.11666667 </v>
   <v>       0.48333333       0.41666667       0.11666667 </v>
   <v>       0.45000000       0.45000000       0.11666667 </v>
   <v>       0.48333333       0.45000000       0.11666667 </v>
   <v>       0.48333333       0.48333333       0.11666667 </v>
   <v>       0.15000000       0.15000000       0.15000000 </v>
   <v>       0.18333333       0.15000000       0.15000000 </v>
   <v>       0.21666667       0.15000000       0.15000000 </v>
   <v>       0.25000000       0.15000000       0.15000000 </v>
   <v>       0.28333333       0.15000000       0.15000000 </v>
   <v>       0.31666667       0.15000000       0.15000000 </v>
   <v>       0.35000000       0.15000000       0.15000000 </v>
   <v>       0.38333333       0.15000000       0.15000000 </v>
   <v>       0.41666667       0.15000000       0.15000000 </v>
   <v>       0.45000000       0.15000000       0.15000000 </v>
   <v>       0.48333333       0.15000000       0.15000000 </v>
   <v>       0.18333333       0.18333333       0.15000000 </v>
   <v>       0.21666667       0.18333333       0.15000000 </v>
   <v>       0.25000000       0.18333333       0.15000000 </v>
   <v>       0.28333333       0.18333333       0.15000000 </v>
   <v>       0.31666667       0.18333333       0.15000000 </v>
   <v>       0.35000000       0.18333333       0.15000000 </v>
   <v>       0.38333333       0.18333333       0.15000000 </v>
   <v>       0.41666667       0.18333333       0.15000000 </v>
   <v>       0.45000000       0.18333333       0.15000000 </v>
   <v>       0.48333333       0.18333333       0.15000000 </v>
   <v>       0.21666667       0.21666667       0.15000000 </v>
   <v>       0.25000000       0.21666667       0.15000000 </v>
   <v>       0.28333333       0.21666667       0.15000000 </v>
   <v>       0.31666667       0.21666667       0.15000000 </v>
   <v>       0.35000000       0.21666667       0.15000000 </v>
   <v>       0.38333333       0.21666667       0.15000000 </v>
   <v>       0.41666667       0.21666667       0.15000000 </v>
   <v>       0.45000000       0.21666667       0.15000000 </v>
   <v>       0.48333333       0.21666667       0.15000000 </v>
   <v>       0.25000000       0.25000000       0.15000000 </v>
   <v>       0.28333333       0.25000000       0.15000000 </v>
   <v>       0.31666667       0.25000000       0.15000000 </v>
   <v>       0.35000000       0.25000000       0.15000000 </v>
   <v>       0.38333333       0.25000000       0.15000000 </v>
   <v>       0.41666667       0.25000000       0.15000000 </v>
   <v>       0.45000000       0.25000000       0.15000000 </v>
   <v>       0.48333333       0.25000000       0.15000000 </v>
   <v>       0.28333333       0.28333333       0.15000000 </v>
   <v>       0.31666667       0.28333333       0.15000000 </v>
   <v>       0.35000000       0.28333333       0.15000000 </v>
   <v>       0.38333333       0.28333333       0.15000000 </v>
   <v>       0.41666667       0.28333333       0.15000000 </v>
   <v>       0.45000000       0.28333333       0.15000000 </v>
   <v>       0.48333333       0.28333333       0.15000000 </v>
   <v>       0.31666667       0.31666667       0.15000000 </v>
   <v>       0.35000000       0.31666667       0.15000000 </v>
   <v>       0.38333333       0.31666667       0.15000000 </v>
   <v>       0.41666667       0.31666667       0.15000000 </v>
   <v>       0.45000000       0.31666667       0.15000000 </v>
   <v>       0.48333333       0.31666667       0.15000000 </v>
   <v>       0.35000000       0.35000000       0.15000000 </v>
   <v>       0.38333333       0.35000000       0.15000000 </v>
   <v>       0.41666667       0.35000000       0.15000000 </v>
   <v>       0.45000000       0.35000000       0.15000000 </v>
   <v>       0.48333333       0.35000000       0.15000000 </v>
   <v>       0.38333333       0.38333333       0.15000000 </v>
   <v>       0.41666667       0.38333333       0.15000000 </v>
   <v>       0.45000000       0.38333333       0.15000000 </v>
   <v>       0.48333333       0.38333333       0.15000000 </v>
   <v>       0.41666667       0.41666667       0.15000000 </v>
   <v>       0.45000000       0.41666667       0.15000000 </v>
   <v>       0.48333333       0.41666667       0.15000000 </v>
   <v>       0.45000000       0.45000000       0.15000000 </v>
   <v>       0.48333333       0.45000000       0.15000000 </v>
   <v>       0.48333333       0.48333333       0.15000000 </v>
   <v>       0.18333333       0.18333333       0.18333333 </v>
   <v>       0.21666667       0.18333333       0.18333333 </v>
   <v>       0.25000000       0.18333333       0.18333333 </v>
   <v>       0.28333333       0.18333333       0.18333333 </v>
   <v>       0.31666667       0.18333333       0.18333333 </v>
   <v>       0.35000000       0.18333333       0.18333333 </v>
   <v>       0.38333333       0.18333333       0.18333333 </v>
   <v>       0.41666667       0.18333333       0.18333333 </v>
   <v>       0.45000000       0.18333333       0.18333333 </v>
   <v>       0.48333333       0.18333333       0.18333333 </v>
   <v>       0.21666667       0.21666667       0.18333333 </v>
   <v>       0.25000000       0.21666667       0.18333333 </v>
   <v>       0.28333333       0.21666667       0.18333333 </v>
   <v>       0.31666667       0.21666667       0.18333333 </v>
   <v>       0.35000000       0.21666667       0.18333333 </v>
   <v>       0.38333333       0.21666667       0.18333333 </v>
   <v>       0.41666667       0.21666667       0.18333333 </v>
   <v>       0.45000000       0.21666667       0.18333333 </v>
   <v>       0.48333333       0.21666667       0.18333333 </v>
   <v>       0.25000000       0.25000000       0.18333333 </v>
   <v>       0.28333333       0.25000000       0.18333333 </v>
   <v>       0.31666667       0.25000000       0.18333333 </v>
   <v>       0.35000000       0.25000000       0.18333333 </v>
   <v>       0.38333333       0.25000000       0.18333333 </v>
   <v>       0.41666667       0.25000000       0.18333333 </v>
   <v>       0.45000000       0.25000000       0.18333333 </v>
   <v>       0.48333333       0.25000000       0.18333333 </v>
   <v>       0.28333333       0.28333333       0.18333333 </v>
   <v>       0.31666667       0.28333333       0.18333333 </v>
   <v>       0.35000000       0.28333333       0.18333333 </v>
   <v>       0.38333333       0.28333333       0.18333333 </v>
   <v>       0.41666667       0.28333333       0.18333333 </v>
   <v>       0.45000000       0.28333333       0.18333333 </v>
   <v>       0.48333333       0.28333333       0.18333333 </v>
   <v>       0.31666667       0.31666667       0.18333333 </v>
   <v>       0.35000000       0.31666667       0.18333333 </v>
   <v>       0.38333333       0.31666667       0.18333333 </v>
   <v>       0.41666667       0.31666667       0.18333333 </v>
   <v>       0.45000000       0.31666667       0.18333333 </v>
   <v>       0.48333333       0.31666667       0.18333333 </v>
   <v>       0.35000000       0.35000000       0.18333333 </v>
   <v>       0.38333333       0.35000000       0.18333333 </v>
   <v>       0.41666667       0.35000000       0.18333333 </v>
   <v>       0.45000000       0.35000000       0.18333333 </v>
   <v>       0.48333333       0.35000000       0.18333333 </v>
   <v>       0.38333333       0.38333333       0.18333333 </v>
   <v>       0.41666667       0.38333333       0.18333333 </v>
   <v>       0.45000000       0.38333333       0.18333333 </v>
   <v>       0.48333333       0.38333333       0.18333333 </v>
   <v>       0.41666667       0.41666667       0.18333333 </v>
   <v>       0.45000000       0.41666667       0.18333333 </v>
   <v>       0.48333333       0.41666667       0.18333333 </v>
   <v>       0.45000000       0.45000000       0.18333333 </v>
   <v>       0.48333333       0.45000000       0.18333333 </v>
   <v>       0.48333333       0.48333333       0.18333333 </v>
   <v>       0.21666667       0.21666667       0.21666667 </v>
   <v>       0.25000000       0.21666667       0.21666667 </v>
   <v>       0.28333333       0.21666667       0.21666667 </v>
   <v>       0.31666667       0.21666667       0.21666667 </v>
   <v>       0.35000000       0.21666667       0.21666667 </v>
   <v>       0.38333333       0.21666667       0.21666667 </v>
   <v>       0.41666667       0.21666667       0.21666667 </v>
   <v>       0.45000000       0.21666667       0.21666667 </v>
   <v>       0.48333333       0.21666667       0.21666667 </v>
   <v>       0.25000000       0.25000000       0.21666667 </v>
   <v>       0.28333333       0.25000000       0.21666667 </v>
   <v>       0.31666667       0.25000000       0.21666667 </v>
   <v>       0.35000000       0.25000000       0.21666667 </v>
   <v>       0.38333333       0.25000000       0.21666667 </v>
   <v>       0.41666667       0.25000000       0.21666667 </v>
   <v>       0.45000000       0.25000000       0.21666667 </v>
   <v>       0.48333333       0.25000000       0.21666667 </v>
   <v>       0.28333333       0.28333333       0.21666667 </v>
   <v>       0.31666667       0.28333333       0.21666667 </v>
   <v>       0.35000000       0.28333333       0.21666667 </v>
   <v>       0.38333333       0.28333333       0.21666667 </v>
   <v>       0.41666667       0.28333333       0.21666667 </v>
   <v>       0.45000000       0.28333333       0.21666667 </v>
   <v>       0.48333333       0.28333333       0.21666667 </v>
   <v>       0.31666667       0.31666667       0.21666667 </v>
   <v>       0.35000000       0.31666667       0.21666667 </v>
   <v>       0.38333333       0.31666667       0.21666667 </v>
   <v>       0.41666667       0.31666667       0.21666667 </v>
   <v>       0.45000000       0.31666667       0.21666667 </v>
   <v>       0.48333333       0.31666667       0.21666667 </v>
   <v>       0.35000000       0.35000000       0.21666667 </v>
   <v>       0.38333333       0.35000000       0.21666667 </v>
   <v>       0.41666667       0.35000000       0.21666667 </v>
   <v>       0.45000000       0.35000000       0.21666667 </v>
   <v>       0.48333333       0.35000000       0.21666667 </v>
   <v>       0.38333333       0.38333333       0.21666667 </v>
   <v>       0.41666667       0.38333333       0.21666667 </v>
   <v>       0.45000000       0.38333333       0.21666667 </v>
   <v>       0.48333333       0.38333333       0.21666667 </v>
   <v>       0.41666667       0.41666667       0.21666667 </v>
   <v>       0.45000000       0.41666667       0.21666667 </v>
   <v>       0.48333333       0.41666667       0.21666667 </v>
   <v>       0.45000000       0.45000000       0.21666667 </v>
   <v>       0.48333333       0.45000000       0.21666667 </v>
   <v>       0.48333333       0.48333333       0.21666667 </v>
   <v>       0.25000000       0.25000000       0.25000000 </v>
   <v>       0.28333333       0.25000000       0.25000000 </v>
   <v>       0.31666667       0.25000000       0.25000000 </v>
   <v>       0.35000000       0.25000000       0.25000000 </v>
   <v>       0.38333333       0.25000000       0.25000000 </v>
   <v>       0.41666667       0.25000000       0.25000000 </v>
   <v>       0.45000000       0.25000000       0.25000000 </v>
   <v>       0.48333333       0.25000000       0.25000000 </v>
   <v>       0.28333333       0.28333333       0.25000000 </v>
   <v>       0.31666667       0.28333333       0.25000000 </v>
   <v>       0.35000000       0.28333333       0.25000000 </v>
   <v>       0.38333333       0.28333333       0.25000000 </v>
   <v>       0.41666667       0.28333333       0.25000000 </v>
   <v>       0.45000000       0.28333333       0.25000000 </v>
   <v>       0.48333333       0.28333333       0.25000000 </v>
   <v>       0.31666667       0.31666667       0.25000000 </v>
   <v>       0.35000000       0.31666667       0.25000000 </v>
   <v>       0.38333333       0.31666667       0.25000000 </v>
   <v>       0.41666667       0.31666667       0.25000000 </v>
   <v>       0.45000000       0.31666667       0.25000000 </v>
   <v>       0.48333333       0.31666667       0.25000000 </v>
   <v>       0.35000000       0.35000000       0.25000000 </v>
   <v>       0.38333333       0.35000000       0.25000000 </v>
   <v>       0.41666667       0.35000000       0.25000000 </v>
   <v>       0.45000000       0.35000000       0.25000000 </v>
   <v>       0.48333333       0.35000000       0.25000000 </v>
   <v>       0.38333333       0.38333333       0.25000000 </v>
   <v>       0.41666667       0.38333333       0.25000000 </v>
   <v>       0.45000000       0.38333333       0.25000000 </v>
   <v>       0.48333333       0.38333333       0.25000000 </v>
   <v>       0.41666667       0.41666667       0.25000000 </v>
   <v>       0.45000000       0.41666667       0.25000000 </v>
   <v>       0.48333333       0.41666667       0.25000000 </v>
   <v>       0.45000000       0.45000000       0.25000000 </v>
   <v>       0.48333333       0.45000000       0.25000000 </v>
   <v>       0.48333333       0.48333333       0.25000000 </v>
   <v>       0.28333333       0.28333333       0.28333333 </v>
   <v>       0.31666667       0.28333333       0.28333333 </v>
   <v>       0.35000000       0.28333333       0.28333333 </v>
   <v>       0.38333333       0.28333333       0.28333333 </v>
   <v>       0.41666667       0.28333333       0.28333333 </v>
   <v>       0.45000000       0.28333333       0.28333333 </v>
   <v>       0.48333333       0.28333333       0.28333333 </v>
   <v>       0.31666667       0.31666667       0.28333333 </v>
   <v>       0.35000000       0.31666667       0.28333333 </v>
   <v>       0.38333333       0.31666667       0.28333333 </v>
   <v>       0.41666667       0.31666667       0.28333333 </v>
   <v>       0.45000000       0.31666667       0.28333333 </v>
   <v>       0.48333333       0.31666667       0.28333333 </v>
   <v>       0.35000000       0.35000000       0.28333333 </v>
   <v>       0.38333333       0.35000000       0.28333333 </v>
   <v>       0.41666667       0.35000000       0.28333333 </v>
   <v>       0.45000000       0.35000000       0.28333333 </v>
   <v>       0.48333333       0.35000000       0.28333333 </v>
   <v>       0.38333333       0.38333333       0.28333333 </v>
   <v>       0.41666667       0.38333333       0.28333333 </v>
   <v>       0.45000000       0.38333333       0.28333333 </v>
   <v>       0.48333333       0.38333333       0.28333333 </v>
   <v>       0.41666667       0.41666667       0.28333333 </v>
   <v>       0.45000000       0.41666667       0.28333333 </v>
   <v>       0.48333333       0.41666667       0.28333333 </v>
   <v>       0.45000000       0.45000000       0.28333333 </v>
   <v>       0.48333333       0.45000000       0.28333333 </v>
   <v>       0.48333333       0.48333333       0.28333333 </v>
   <v>       0.31666667       0.31666667       0.31666667 </v>
   <v>       0.35000000       0.31666667       0.31666667 </v>
   <v>       0.38333333       0.31666667       0.31666667 </v>
   <v>       0.41666667       0.31666667       0.31666667 </v>
   <v>       0.45000000       0.31666667       0.31666667 </v>
   <v>       0.48333333       0.31666667       0.31666667 </v>
   <v>       0.35000000       0.35000000       0.31666667 </v>
   <v>       0.38333333       0.35000000       0.31666667 </v>
   <v>       0.41666667       0.35000000       0.31666667 </v>
   <v>       0.45000000       0.35000000       0.31666667 </v>
   <v>       0.48333333       0.35000000       0.31666667 </v>
   <v>       0.38333333       0.38333333       0.31666667 </v>
   <v>       0.41666667       0.38333333       0.31666667 </v>
   <v>       0.45000000       0.38333333       0.31666667 </v>
   <v>       0.48333333       0.38333333       0.31666667 </v>
   <v>       0.41666667       0.41666667       0.31666667 </v>
   <v>       0.45000000       0.41666667       0.31666667 </v>
   <v>       0.48333333       0.41666667       0.31666667 </v>
   <v>       0.45000000       0.45000000       0.31666667 </v>
   <v>       0.48333333       0.45000000       0.31666667 </v>
   <v>       0.48333333       0.48333333       0.31666667 </v>
   <v>       0.35000000       0.35000000       0.35000000 </v>
   <v>       0.38333333       0.35000000       0.35000000 </v>
   <v>       0.41666667       0.35000000       0.35000000 </v>
   <v>       0.45000000       0.35000000       0.35000000 </v>
   <v>       0.48333333       0.35000000       0.35000000 </v>
   <v>       0.38333333       0.38333333       0.35000000 </v>
   <v>       0.41666667       0.38333333       0.35000000 </v>
   <v>       0.45000000       0.38333333       0.35000000 </v>
   <v>       0.48333333       0.38333333       0.35000000 </v>
   <v>       0.41666667       0.41666667       0.35000000 </v>
   <v>       0.45000000       0.41666667       0.35000000 </v>
   <v>       0.48333333       0.41666667       0.35000000 </v>
   <v>       0.45000000       0.45000000       0.35000000 </v>
   <v>       0.48333333       0.45000000       0.35000000 </v>
   <v>       0.48333333       0.48333333       0.35000000 </v>
   <v>       0.38333333       0.38333333       0.38333333 </v>
   <v>       0.41666667       0.38333333       0.38333333 </v>
   <v>       0.45000000       0.38333333       0.38333333 </v>
   <v>       0.48333333       0.38333333       0.38333333 </v>
   <v>       0.41666667       0.41666667       0.38333333 </v>
   <v>       0.45000000       0.41666667       0.38333333 </v>
   <v>       0.48333333       0.41666667       0.38333333 </v>
   <v>       0.45000000       0.45000000       0.38333333 </v>
   <v>       0.48333333       0.45000000       0.38333333 </v>
   <v>       0.48333333       0.48333333       0.38333333 </v>
   <v>       0.41666667       0.41666667       0.41666667 </v>
   <v>       0.45000000       0.41666667       0.41666667 </v>
   <v>       0.48333333       0.41666667       0.41666667 </v>
   <v>       0.45000000       0.45000000       0.41666667 </v>
   <v>       0.48333333       0.45000000       0.41666667 </v>
   <v>       0.48333333       0.48333333       0.41666667 </v>
   <v>       0.45000000       0.45000000       0.45000000 </v>
   <v>       0.48333333       0.45000000       0.45000000 </v>
   <v>       0.48333333       0.48333333       0.45000000 </v>
   <v>       0.48333333       0.48333333       0.48333333 </v>
  </varray>
  <varray name="weights" >
   <v>       0.00029630 </v>
   <v>       0.00088889 </v>
   <v>       0.00088889 </v>
   <v>       0.00088889 </v>
   <v>       0.00088889 </v>
   <v>       0.00088889 </v>
   <v>       0.00088889 </v>
   <v>       0.00088889 </v>
   <v>       0.00088889 </v>
   <v>       0.00088889 </v>
   <v>       0.00088889 </v>
   <v>       0.00088889 </v>
   <v>       0.00088889 </v>
   <v>       0.00088889 </v>
   <v>       0.00088889 </v>
   <v>       0.00088889 </v>
   <v>       0.00177778 </v>
   <v>       0.00177778 </v>
   <v>       0.00177778 </v>
   <v>       0.00177778 </v>
   <v>       0.00177778 </v>
   <v>       0.00177778 </v>
   <v>       0.00177778 </v>
   <v>       0.00177778 </v>
   <v>       0.00177778 </v>
   <v>       0.00177778 </v>
   <v>       0.00177778 </v>
   <v>       0.00177778 </v>
   <v>       0.00177778 </v>
   <v>       0.00088889 </v>
   <v>       0.00177778 </v>
   <v>       0.00177778 </v>
   <v>       0.00177778 </v>
   <v>       0.00177778 </v>
   <v>       0.00177778 </v>
   <v>       0.00177778 </v>
   <v>       0.00177778 </v>
   <v>       0.00177778 </v>
   <v>       0.00177778 </v>
   <v>       0.00177778 </v>
   <v>       0.00177778 </v>
   <v>       0.00177778 </v>
   <v>       0.00088889 </v>
   <v>       0.00177778 </v>
   <v>       0.00177778 </v>
   <v>       0.00177778 </v>
   <v>       0.00177778 </v>
   <v>       0.00177778 </v>
   <v>       0.00177778 </v>
   <v>       0.00177778 </v>
   <v>       0.00177778 </v>
   <v>       0.00177778 </v>
   <v>       0.00177778 </v>
   <v>       0.00177778 </v>
   <v>       0.00088889 </v>
   <v>       0.00177778 </v>
   <v>       0.00177778 </v>
   <v>       0.00177778 </v>
   <v>       0.00177778 </v>
   <v>       0.00177778 </v>
   <v>       0.00177778 </v>
   <v>       0.00177778 </v>
   <v>       0.00177778 </v>
   <v>       0.00177778 </v>
   <v>       0.00177778 </v>
   <v>       0.00088889 </v>
   <v>       0.00177778 </v>
   <v>       0.00177778 </v>
   <v>       0.00177778 </v>
   <v>       0.00177778 </v>
   <v>       0.00177778 </v>
   <v>       0.00177778 </v>
   <v>       0.00177778 </v>
   <v>       0.00177778 </v>
   <v>       0.00177778 </v>
   <v>       0.00088889 </v>
   <v>       0.00177778 </v>
   <v>       0.00177778 </v>
   <v>       0.00177778 </v>
   <v>       0.00177778 </v>
   <v>       0.00177778 </v>
   <v>       0.00177778 </v>
   <v>       0.00177778 </v>
   <v>       0.00177778 </v>
   <v>       0.00088889 </v>
   <v>       0.00177778 </v>
   <v>       0.00177778 </v>
   <v>       0.00177778 </v>
   <v>       0.00177778 </v>
   <v>       0.00177778 </v>
   <v>       0.00177778 </v>
   <v>       0.00177778 </v>
   <v>       0.00088889 </v>
   <v>       0.00177778 </v>
   <v>       0.00177778 </v>
   <v>       0.00177778 </v>
   <v>       0.00177778 </v>
   <v>       0.00177778 </v>
   <v>       0.00177778 </v>
   <v>       0.00088889 </v>
   <v>       0.00177778 </v>
   <v>       0.00177778 </v>
   <v>       0.00177778 </v>
   <v>       0.00177778 </v>
   <v>       0.00177778 </v>
   <v>       0.00088889 </v>
   <v>       0.00177778 </v>
   <v>       0.00177778 </v>
   <v>       0.00177778 </v>
   <v>       0.00177778 </v>
   <v>       0.00088889 </v>
   <v>       0.00177778 </v>
   <v>       0.00177778 </v>
   <v>       0.00177778 </v>
   <v>       0.00088889 </v>
   <v>       0.00177778 </v>
   <v>       0.00177778 </v>
   <v>       0.00088889 </v>
   <v>       0.00177778 </v>
   <v>       0.00088889 </v>
   <v>       0.00029630 </v>
   <v>       0.00088889 </v>
   <v>       0.00088889 </v>
   <v>       0.00088889 </v>
   <v>       0.00088889 </v>
   <v>       0.00088889 </v>
   <v>       0.00088889 </v>
   <v>       0.00088889 </v>
   <v>       0.00088889 </v>
   <v>       0.00088889 </v>
   <v>       0.00088889 </v>
   <v>       0.00088889 </v>
   <v>       0.00088889 </v>
   <v>       0.00088889 </v>
   <v>       0.00088889 </v>
   <v>       0.00177778 </v>
   <v>       0.00177778 </v>
   <v>       0.00177778 </v>
   <v>       0.00177778 </v>
   <v>       0.00177778 </v>
   <v>       0.00177778 </v>
   <v>       0.00177778 </v>
   <v>       0.00177778 </v>
   <v>       0.00177778 </v>
   <v>       0.00177778 </v>
   <v>       0.00177778 </v>
   <v>       0.00177778 </v>
   <v>       0.00088889 </v>
   <v>       0.00177778 </v>
   <v>       0.00177778 </v>
   <v>       0.00177778 </v>
   <v>       0.00177778 </v>
   <v>       0.00177778 </v>
   <v>       0.00177778 </v>
   <v>       0.00177778 </v>
   <v>       0.00177778 </v>
   <v>       0.00177778 </v>
   <v>       0.00177778 </v>
   <v>       0.00177778 </v>
   <v>       0.00088889 </v>
   <v>       0.00177778 </v>
   <v>       0.00177778 </v>
   <v>       0.00177778 </v>
   <v>       0.00177778 </v>
   <v>       0.00177778 </v>
   <v>       0.00177778 </v>
   <v>       0.00177778 </v>
   <v>       0.00177778 </v>
   <v>       0.00177778 </v>
   <v>       0.00177778 </v>
   <v>       0.00088889 </v>
   <v>       0.00177778 </v>
   <v>       0.00177778 </v>
   <v>       0.00177778 </v>
   <v>       0.00177778 </v>
   <v>       0.00177778 </v>
   <v>       0.00177778 </v>
   <v>       0.00177778 </v>
   <v>       0.00177778 </v>
   <v>       0.00177778 </v>
   <v>       0.00088889 </v>
   <v>       0.00177778 </v>
   <v>       0.00177778 </v>
   <v>       0.00177778 </v>
   <v>       0.00177778 </v>
   <v>       0.00177778 </v>
   <v>       0.00177778 </v>
   <v>       0.00177778 </v>
   <v>       0.00177778 </v>
   <v>       0.00088889 </v>
   <v>       0.00177778 </v>
   <v>       0.00177778 </v>
   <v>       0.00177778 </v>
   <v>       0.00177778 </v>
   <v>       0.00177778 </v>
   <v>       0.00177778 </v>
   <v>       0.00177778 </v>
   <v>       0.00088889 </v>
   <v>       0.00177778 </v>
   <v>       0.00177778 </v>
   <v>       0.00177778 </v>
   <v>       0.00177778 </v>
   <v>       0.00177778 </v>
   <v>       0.00177778 </v>
   <v>       0.00088889 </v>
   <v>       0.00177778 </v>
   <v>       0.00177778 </v>
   <v>       0.00177778 </v>
   <v>       0.00177778 </v>
   <v>       0.00177778 </v>
   <v>       0.00088889 </v>
   <v>       0.00177778 </v>
   <v>       0.00177778 </v>
   <v>       0.00177778 </v>
   <v>       0.00177778 </v>
   <v>       0.00088889 </v>
   <v>       0.00177778 </v>
   <v>       0.00177778 </v>
   <v>       0.00177778 </v>
   <v>       0.00088889 </v>
   <v>       0.00177778 </v>
   <v>       0.00177778 </v>
   <v>       0.00088889 </v>
   <v>       0.00177778 </v>
   <v>       0.00088889 </v>
   <v>       0.00029630 </v>
   <v>       0.00088889 </v>
   <v>       0.00088889 </v>
   <v>       0.00088889 </v>
   <v>       0.00088889 </v>
   <v>       0.00088889 </v>
   <v>       0.00088889 </v>
   <v>       0.00088889 </v>
   <v>       0.00088889 </v>
   <v>       0.00088889 </v>
   <v>       0.00088889 </v>
   <v>       0.00088889 </v>
   <v>       0.00088889 </v>
   <v>       0.00088889 </v>
   <v>       0.00177778 </v>
   <v>       0.00177778 </v>
   <v>       0.00177778 </v>
   <v>       0.00177778 </v>
   <v>       0.00177778 </v>
   <v>       0.00177778 </v>
   <v>       0.00177778 </v>
   <v>       0.00177778 </v>
   <v>       0.00177778 </v>
   <v>       0.00177778 </v>
   <v>       0.00177778 </v>
   <v>       0.00088889 </v>
   <v>       0.00177778 </v>
   <v>       0.00177778 </v>
   <v>       0.00177778 </v>
   <v>       0.00177778 </v>
   <v>       0.00177778 </v>
   <v>       0.00177778 </v>
   <v>       0.00177778 </v>
   <v>       0.00177778 </v>
   <v>       0.00177778 </v>
   <v>       0.00177778 </v>
   <v>       0.00088889 </v>
   <v>       0.00177778 </v>
   <v>       0.00177778 </v>
   <v>       0.00177778 </v>
   <v>       0.00177778 </v>
   <v>       0.00177778 </v>
   <v>       0.00177778 </v>
   <v>       0.00177778 </v>
   <v>       0.00177778 </v>
   <v>       0.00177778 </v>
   <v>       0.00088889 </v>
   <v>       0.00177778 </v>
   <v>       0.00177778 </v>
   <v>       0.00177778 </v>
   <v>       0.00177778 </v>
   <v>       0.00177778 </v>
   <v>       0.00177778 </v>
   <v>       0.00177778 </v>
   <v>       0.00177778 </v>
   <v>       0.00088889 </v>
   <v>       0.00177778 </v>
   <v>       0.00177778 </v>
   <v>       0.00177778 </v>
   <v>       0.00177778 </v>
   <v>       0.00177778 </v>
   <v>       0.00177778 </v>
   <v>       0.00177778 </v>
   <v>       0.00088889 </v>
   <v>       0.00177778 </v>
   <v>       0.00177778 </v>
   <v>       0.00177778 </v>
   <v>       0.00177778 </v>
   <v>       0.00177778 </v>
   <v>       0.00177778 </v>
   <v>       0.00088889 </v>
   <v>       0.00177778 </v>
   <v>       0.00177778 </v>
   <v>       0.00177778 </v>
   <v>       0.00177778 </v>
   <v>       0.00177778 </v>
   <v>       0.00088889 </v>
   <v>       0.00177778 </v>
   <v>       0.00177778 </v>
   <v>       0.00177778 </v>
   <v>       0.00177778 </v>
   <v>       0.00088889 </v>
   <v>       0.00177778 </v>
   <v>       0.00177778 </v>
   <v>       0.00177778 </v>
   <v>       0.00088889 </v>
   <v>       0.00177778 </v>
   <v>       0.00177778 </v>
   <v>       0.00088889 </v>
   <v>       0.00177778 </v>
   <v>       0.00088889 </v>
   <v>       0.00029630 </v>
   <v>       0.00088889 </v>
   <v>       0.00088889 </v>
   <v>       0.00088889 </v>
   <v>       0.00088889 </v>
   <v>       0.00088889 </v>
   <v>       0.00088889 </v>
   <v>       0.00088889 </v>
   <v>       0.00088889 </v>
   <v>       0.00088889 </v>
   <v>       0.00088889 </v>
   <v>       0.00088889 </v>
   <v>       0.00088889 </v>
   <v>       0.00177778 </v>
   <v>       0.00177778 </v>
   <v>       0.00177778 </v>
   <v>       0.00177778 </v>
   <v>       0.00177778 </v>
   <v>       0.00177778 </v>
   <v>       0.00177778 </v>
   <v>       0.00177778 </v>
   <v>       0.00177778 </v>
   <v>       0.00177778 </v>
   <v>       0.00088889 </v>
   <v>       0.00177778 </v>
   <v>       0.00177778 </v>
   <v>       0.00177778 </v>
   <v>       0.00177778 </v>
   <v>       0.00177778 </v>
   <v>       0.00177778 </v>
   <v>       0.00177778 </v>
   <v>       0.00177778 </v>
   <v>       0.00177778 </v>
   <v>       0.00088889 </v>
   <v>       0.00177778 </v>
   <v>       0.00177778 </v>
   <v>       0.00177778 </v>
   <v>       0.00177778 </v>
   <v>       0.00177778 </v>
   <v>       0.00177778 </v>
   <v>       0.00177778 </v>
   <v>       0.00177778 </v>
   <v>       0.00088889 </v>
   <v>       0.00177778 </v>
   <v>       0.00177778 </v>
   <v>       0.00177778 </v>
   <v>       0.00177778 </v>
   <v>       0.00177778 </v>
   <v>       0.00177778 </v>
   <v>       0.00177778 </v>
   <v>       0.00088889 </v>
   <v>       0.00177778 </v>
   <v>       0.00177778 </v>
   <v>       0.00177778 </v>
   <v>       0.00177778 </v>
   <v>       0.00177778 </v>
   <v>       0.00177778 </v>
   <v>       0.00088889 </v>
   <v>       0.00177778 </v>
   <v>       0.00177778 </v>
   <v>       0.00177778 </v>
   <v>       0.00177778 </v>
   <v>       0.00177778 </v>
   <v>       0.00088889 </v>
   <v>       0.00177778 </v>
   <v>       0.00177778 </v>
   <v>       0.00177778 </v>
   <v>       0.00177778 </v>
   <v>       0.00088889 </v>
   <v>       0.00177778 </v>
   <v>       0.00177778 </v>
   <v>       0.00177778 </v>
   <v>       0.00088889 </v>
   <v>       0.00177778 </v>
   <v>       0.00177778 </v>
   <v>       0.00088889 </v>
   <v>       0.00177778 </v>
   <v>       0.00088889 </v>
   <v>       0.00029630 </v>
   <v>       0.00088889 </v>
   <v>       0.00088889 </v>
   <v>       0.00088889 </v>
   <v>       0.00088889 </v>
   <v>       0.00088889 </v>
   <v>       0.00088889 </v>
   <v>       0.00088889 </v>
   <v>       0.00088889 </v>
   <v>       0.00088889 </v>
   <v>       0.00088889 </v>
   <v>       0.00088889 </v>
   <v>       0.00177778 </v>
   <v>       0.00177778 </v>
   <v>       0.00177778 </v>
   <v>       0.00177778 </v>
   <v>       0.00177778 </v>
   <v>       0.00177778 </v>
   <v>       0.00177778 </v>
   <v>       0.00177778 </v>
   <v>       0.00177778 </v>
   <v>       0.00088889 </v>
   <v>       0.00177778 </v>
   <v>       0.00177778 </v>
   <v>       0.00177778 </v>
   <v>       0.00177778 </v>
   <v>       0.00177778 </v>
   <v>       0.00177778 </v>
   <v>       0.00177778 </v>
   <v>       0.00177778 </v>
   <v>       0.00088889 </v>
   <v>       0.00177778 </v>
   <v>       0.00177778 </v>
   <v>       0.00177778 </v>
   <v>       0.00177778 </v>
   <v>       0.00177778 </v>
   <v>       0.00177778 </v>
   <v>       0.00177778 </v>
   <v>       0.00088889 </v>
   <v>       0.00177778 </v>
   <v>       0.00177778 </v>
   <v>       0.00177778 </v>
   <v>       0.00177778 </v>
   <v>       0.00177778 </v>
   <v>       0.00177778 </v>
   <v>       0.00088889 </v>
   <v>       0.00177778 </v>
   <v>       0.00177778 </v>
   <v>       0.00177778 </v>
   <v>       0.00177778 </v>
   <v>       0.00177778 </v>
   <v>       0.00088889 </v>
   <v>       0.00177778 </v>
   <v>       0.00177778 </v>
   <v>       0.00177778 </v>
   <v>       0.00177778 </v>
   <v>       0.00088889 </v>
   <v>       0.00177778 </v>
   <v>       0.00177778 </v>
   <v>       0.00177778 </v>
   <v>       0.00088889 </v>
   <v>       0.00177778 </v>
   <v>       0.00177778 </v>
   <v>       0.00088889 </v>
   <v>       0.00177778 </v>
   <v>       0.00088889 </v>
   <v>       0.00029630 </v>
   <v>       0.00088889 </v>
   <v>       0.00088889 </v>
   <v>       0.00088889 </v>
   <v>       0.00088889 </v>
   <v>       0.00088889 </v>
   <v>       0.00088889 </v>
   <v>       0.00088889 </v>
   <v>       0.00088889 </v>
   <v>       0.00088889 </v>
   <v>       0.00088889 </v>
   <v>       0.00177778 </v>
   <v>       0.00177778 </v>
   <v>       0.00177778 </v>
   <v>       0.00177778 </v>
   <v>       0.00177778 </v>
   <v>       0.00177778 </v>
   <v>       0.00177778 </v>
   <v>       0.00177778 </v>
   <v>       0.00088889 </v>
   <v>       0.00177778 </v>
   <v>       0.00177778 </v>
   <v>       0.00177778 </v>
   <v>       0.00177778 </v>
   <v>       0.00177778 </v>
   <v>       0.00177778 </v>
   <v>       0.00177778 </v>
   <v>       0.00088889 </v>
   <v>       0.00177778 </v>
   <v>       0.00177778 </v>
   <v>       0.00177778 </v>
   <v>       0.00177778 </v>
   <v>       0.00177778 </v>
   <v>       0.00177778 </v>
   <v>       0.00088889 </v>
   <v>       0.00177778 </v>
   <v>       0.00177778 </v>
   <v>       0.00177778 </v>
   <v>       0.00177778 </v>
   <v>       0.00177778 </v>
   <v>       0.00088889 </v>
   <v>       0.00177778 </v>
   <v>       0.00177778 </v>
   <v>       0.00177778 </v>
   <v>       0.00177778 </v>
   <v>       0.00088889 </v>
   <v>       0.00177778 </v>
   <v>       0.00177778 </v>
   <v>       0.00177778 </v>
   <v>       0.00088889 </v>
   <v>       0.00177778 </v>
   <v>       0.00177778 </v>
   <v>       0.00088889 </v>
   <v>       0.00177778 </v>
   <v>       0.00088889 </v>
   <v>       0.00029630 </v>
   <v>       0.00088889 </v>
   <v>       0.00088889 </v>
   <v>       0.00088889 </v>
   <v>       0.00088889 </v>
   <v>       0.00088889 </v>
   <v>       0.00088889 </v>
   <v>       0.00088889 </v>
   <v>       0.00088889 </v>
   <v>       0.00088889 </v>
   <v>       0.00177778 </v>
   <v>       0.00177778 </v>
   <v>       0.00177778 </v>
   <v>       0.00177778 </v>
   <v>       0.00177778 </v>
   <v>       0.00177778 </v>
   <v>       0.00177778 </v>
   <v>       0.00088889 </v>
   <v>       0.00177778 </v>
   <v>       0.00177778 </v>
   <v>       0.00177778 </v>
   <v>       0.00177778 </v>
   <v>       0.00177778 </v>
   <v>       0.00177778 </v>
   <v>       0.00088889 </v>
   <v>       0.00177778 </v>
   <v>       0.00177778 </v>
   <v>       0.00177778 </v>
   <v>       0.00177778 </v>
   <v>       0.00177778 </v>
   <v>       0.00088889 </v>
   <v>       0.00177778 </v>
   <v>       0.00177778 </v>
   <v>       0.00177778 </v>
   <v>       0.00177778 </v>
   <v>       0.00088889 </v>
   <v>       0.00177778 </v>
   <v>       0.00177778 </v>
   <v>       0.00177778 </v>
   <v>       0.00088889 </v>
   <v>       0.00177778 </v>
   <v>       0.00177778 </v>
   <v>       0.00088889 </v>
   <v>       0.00177778 </v>
   <v>       0.00088889 </v>
   <v>       0.00029630 </v>
   <v>       0.00088889 </v>
   <v>       0.00088889 </v>
   <v>       0.00088889 </v>
   <v>       0.00088889 </v>
   <v>       0.00088889 </v>
   <v>       0.00088889 </v>
   <v>       0.00088889 </v>
   <v>       0.00088889 </v>
   <v>       0.00177778 </v>
   <v>       0.00177778 </v>
   <v>       0.00177778 </v>
   <v>       0.00177778 </v>
   <v>       0.00177778 </v>
   <v>       0.00177778 </v>
   <v>       0.00088889 </v>
   <v>       0.00177778 </v>
   <v>       0.00177778 </v>
   <v>       0.00177778 </v>
   <v>       0.00177778 </v>
   <v>       0.00177778 </v>
   <v>       0.00088889 </v>
   <v>       0.00177778 </v>
   <v>       0.00177778 </v>
   <v>       0.00177778 </v>
   <v>       0.00177778 </v>
   <v>       0.00088889 </v>
   <v>       0.00177778 </v>
   <v>       0.00177778 </v>
   <v>       0.00177778 </v>
   <v>       0.00088889 </v>
   <v>       0.00177778 </v>
   <v>       0.00177778 </v>
   <v>       0.00088889 </v>
   <v>       0.00177778 </v>
   <v>       0.00088889 </v>
   <v>       0.00029630 </v>
   <v>       0.00088889 </v>
   <v>       0.00088889 </v>
   <v>       0.00088889 </v>
   <v>       0.00088889 </v>
   <v>       0.00088889 </v>
   <v>       0.00088889 </v>
   <v>       0.00088889 </v>
   <v>       0.00177778 </v>
   <v>       0.00177778 </v>
   <v>       0.00177778 </v>
   <v>       0.00177778 </v>
   <v>       0.00177778 </v>
   <v>       0.00088889 </v>
   <v>       0.00177778 </v>
   <v>       0.00177778 </v>
   <v>       0.00177778 </v>
   <v>       0.00177778 </v>
   <v>       0.00088889 </v>
   <v>       0.00177778 </v>
   <v>       0.00177778 </v>
   <v>       0.00177778 </v>
   <v>       0.00088889 </v>
   <v>       0.00177778 </v>
   <v>       0.00177778 </v>
   <v>       0.00088889 </v>
   <v>       0.00177778 </v>
   <v>       0.00088889 </v>
   <v>       0.00029630 </v>
   <v>       0.00088889 </v>
   <v>       0.00088889 </v>
   <v>       0.00088889 </v>
   <v>       0.00088889 </v>
   <v>       0.00088889 </v>
   <v>       0.00088889 </v>
   <v>       0.00177778 </v>
   <v>       0.00177778 </v>
   <v>       0.00177778 </v>
   <v>       0.00177778 </v>
   <v>       0.00088889 </v>
   <v>       0.00177778 </v>
   <v>       0.00177778 </v>
   <v>       0.00177778 </v>
   <v>       0.00088889 </v>
   <v>       0.00177778 </v>
   <v>       0.00177778 </v>
   <v>       0.00088889 </v>
   <v>       0.00177778 </v>
   <v>       0.00088889 </v>
   <v>       0.00029630 </v>
   <v>       0.00088889 </v>
   <v>       0.00088889 </v>
   <v>       0.00088889 </v>
   <v>       0.00088889 </v>
   <v>       0.00088889 </v>
   <v>       0.00177778 </v>
   <v>       0.00177778 </v>
   <v>       0.00177778 </v>
   <v>       0.00088889 </v>
   <v>       0.00177778 </v>
   <v>       0.00177778 </v>
   <v>       0.00088889 </v>
   <v>       0.00177778 </v>
   <v>       0.00088889 </v>
   <v>       0.00029630 </v>
   <v>       0.00088889 </v>
   <v>       0.00088889 </v>
   <v>       0.00088889 </v>
   <v>       0.00088889 </v>
   <v>       0.00177778 </v>
   <v>       0.00177778 </v>
   <v>       0.00088889 </v>
   <v>       0.00177778 </v>
   <v>       0.00088889 </v>
   <v>       0.00029630 </v>
   <v>       0.00088889 </v>
   <v>       0.00088889 </v>
   <v>       0.00088889 </v>
   <v>       0.00177778 </v>
   <v>       0.00088889 </v>
   <v>       0.00029630 </v>
   <v>       0.00088889 </v>
   <v>       0.00088889 </v>
   <v>       0.00029630 </v>
  </varray>
 </kpoints>
 <parameters>
  <separator name="general" >
   <i type="string" name="SYSTEM">unknown system</i>
   <i type="logical" name="LCOMPAT"> F  </i>
  </separator>
  <separator name="electronic" >
   <i type="string" name="PREC">accura</i>
   <i name="ENMAX">    300.00000000</i>
   <i name="ENAUG">    291.05200000</i>
   <i name="EDIFF">      0.00000001</i>
   <i type="int" name="IALGO">    38</i>
   <i type="int" name="IWAVPR">    11</i>
   <i type="int" name="NBANDS">    12</i>
   <i type="int" name="NBANDSLOW">    -1</i>
   <i type="int" name="NBANDSHIGH">    -1</i>
   <i name="NELECT">     12.00000000</i>
   <i type="int" name="TURBO">     0</i>
   <i type="int" name="IRESTART">     0</i>
   <i type="int" name="NREBOOT">     0</i>
   <i type="int" name="NMIN">     0</i>
   <i name="EREF">      0.00000000</i>
   <separator name="electronic smearing" >
    <i type="int" name="ISMEAR">     1</i>
    <i name="SIGMA">      0.20000000</i>
    <i name="KSPACING">      0.50000000</i>
    <i type="logical" name="KGAMMA"> T  </i>
    <i type="logical" name="KBLOWUP"> T  </i>
   </separator>
   <separator name="electronic projectors" >
    <i type="logical" name="LREAL"> F  </i>
    <v name="ROPT">      0.00000000</v>
    <i type="int" name="LMAXPAW">  -100</i>
    <i type="int" name="LMAXMIX">     2</i>
    <i type="logical" name="NLSPLINE"> F  </i>
   </separator>
   <separator name="electronic startup" >
    <i type="int" name="ISTART">     0</i>
    <i type="int" name="ICHARG">     2</i>
    <i type="int" name="INIWAV">     1</i>
   </separator>
   <separator name="electronic spin" >
    <i type="int" name="ISPIN">     1</i>
    <i type="logical" name="LNONCOLLINEAR"> F  </i>
    <v name="MAGMOM">      1.00000000      1.00000000      1.00000000      1.00000000</v>
    <i name="NUPDOWN">     -1.00000000</i>
    <i type="logical" name="LSORBIT"> F  </i>
    <v name="SAXIS">      0.00000000      0.00000000      1.00000000</v>
    <i type="logical" name="LSPIRAL"> F  </i>
    <v name="QSPIRAL">      0.00000000      0.00000000      0.00000000</v>
    <i type="logical" name="LZEROZ"> F  </i>
   </separator>
   <separator name="electronic exchange-correlation" >
    <i type="logical" name="LASPH"> F  </i>
    <i type="logical" name="LMETAGGA"> F  </i>
   </separator>
   <separator name="electronic convergence" >
    <i type="int" name="NELM">   300</i>
    <i type="int" name="NELMDL">    -5</i>
    <i type="int" name="NELMIN">     5</i>
    <i name="ENINI">    300.00000000</i>
    <separator name="electronic convergence detail" >
     <i type="logical" name="LDIAG"> T  </i>
     <i type="logical" name="LSUBROT"> F  </i>
     <i name="WEIMIN">      0.00100000</i>
     <i name="EBREAK">      0.00000000</i>
     <i name="DEPER">      0.30000000</i>
     <i type="int" name="NRMM">     4</i>
     <i name="TIME">      0.40000000</i>
    </separator>
   </separator>
   <separator name="electronic mixer" >
    <i name="AMIX">      0.40000000</i>
    <i name="BMIX">      1.00000000</i>
    <i name="AMIN">      0.10000000</i>
    <i name="AMIX_MAG">      1.60000000</i>
    <i name="BMIX_MAG">      1.00000000</i>
    <separator name="electronic mixer details" >
     <i type="int" name="IMIX">     4</i>
     <i type="logical" name="MIXFIRST"> F  </i>
     <i type="int" name="MAXMIX">   -45</i>
     <i name="WC">    100.00000000</i>
     <i type="int" name="INIMIX">     1</i>
     <i type="int" name="MIXPRE">     1</i>
     <i type="int" name="MREMOVE">     5</i>
    </separator>
   </separator>
   <separator name="electronic dipolcorrection" >
    <i type="logical" name="LDIPOL"> F  </i>
    <i type="logical" name="LMONO"> F  </i>
    <i type="int" name="IDIPOL">     0</i>
    <i name="EPSILON">      1.00000000</i>
    <v name="DIPOL">   -100.00000000   -100.00000000   -100.00000000</v>
    <i name="EFIELD">      0.00000000</i>
   </separator>
  </separator>
  <separator name="grids" >
   <i type="int" name="NGX">    24</i>
   <i type="int" name="NGY">    24</i>
   <i type="int" name="NGZ">    24</i>
   <i type="int" name="NGXF">    48</i>
   <i type="int" name="NGYF">    48</i>
   <i type="int" name="NGZF">    48</i>
   <i type="logical" name="ADDGRID"> T  </i>
  </separator>
  <separator name="ionic" >
   <i type="int" name="NSW">   500</i>
   <i type="int" name="IBRION">     2</i>
   <i type="int" name="MDALGO">     0</i>
   <i type="int" name="ISIF">     2</i>
   <i name="PSTRESS">      0.00000000</i>
   <i name="EDIFFG">     -0.00000001</i>
   <i type="int" name="NFREE">     1</i>
   <i name="POTIM">      0.50000000</i>
   <i name="SMASS">     -3.00000000</i>
   <i name="SCALEE">      1.00000000</i>
  </separator>
  <separator name="ionic md" >
   <i name="TEBEG">      0.00010000</i>
   <i name="TEEND">      0.00010000</i>
   <i type="int" name="NBLOCK">     1</i>
   <i type="int" name="KBLOCK">   500</i>
   <i type="int" name="NPACO">   256</i>
   <i name="APACO">     10.00000000</i>
  </separator>
  <separator name="symmetry" >
   <i type="int" name="ISYM">     2</i>
   <i name="SYMPREC">      0.00001000</i>
  </separator>
  <separator name="dos" >
   <i type="int" name="LORBIT">     0</i>
   <v name="RWIGS">     -1.00000000</v>
   <i type="int" name="NEDOS">   301</i>
   <i name="EMIN">     10.00000000</i>
   <i name="EMAX">    -10.00000000</i>
   <i name="EFERMI">      0.00000000</i>
  </separator>
  <separator name="writing" >
   <i type="int" name="NWRITE">     2</i>
   <i type="logical" name="LWAVE"> F  </i>
   <i type="logical" name="LDOWNSAMPLE"> F  </i>
   <i type="logical" name="LCHARG"> F  </i>
   <i type="logical" name="LPARD"> F  </i>
   <i type="logical" name="LVTOT"> F  </i>
   <i type="logical" name="LVHAR"> F  </i>
   <i type="logical" name="LELF"> F  </i>
   <i type="logical" name="LOPTICS"> F  </i>
   <v name="STM">      0.00000000      0.00000000      0.00000000      0.00000000      0.00000000      0.00000000      0.00000000</v>
  </separator>
  <separator name="performance" >
   <i type="int" name="NPAR">     4</i>
   <i type="int" name="NSIM">     4</i>
   <i type="int" name="NBLK">    -1</i>
   <i type="logical" name="LPLANE"> T  </i>
   <i type="logical" name="LSCALAPACK"> T  </i>
   <i type="logical" name="LSCAAWARE"> F  </i>
   <i type="logical" name="LSCALU"> F  </i>
   <i type="logical" name="LASYNC"> F  </i>
   <i type="logical" name="LORBITALREAL"> F  </i>
  </separator>
  <separator name="miscellaneous" >
   <i type="int" name="IDIOT">     3</i>
   <i type="int" name="PHON_NSTRUCT">    -1</i>
   <i type="logical" name="LMUSIC"> F  </i>
   <v name="POMASS">     26.98100000</v>
   <v name="DARWINR">      0.00000000</v>
   <v name="DARWINV">      1.00000000</v>
   <i type="logical" name="LCORR"> T  </i>
  </separator>
  <i type="logical" name="GGA_COMPAT"> T  </i>
  <i type="logical" name="LBERRY"> F  </i>
  <i type="int" name="ICORELEVEL">     0</i>
  <i type="logical" name="LDAU"> F  </i>
  <i type="int" name="I_CONSTRAINED_M">     0</i>
  <separator name="electronic exchange-correlation" >
   <i type="string" name="GGA">--</i>
   <i type="int" name="VOSKOWN">     0</i>
   <i type="logical" name="LHFCALC"> F  </i>
   <i type="string" name="PRECFOCK"></i>
   <i type="logical" name="LSYMGRAD"> F  </i>
   <i type="logical" name="LHFONE"> F  </i>
   <i type="logical" name="LRHFCALC"> F  </i>
   <i type="logical" name="LTHOMAS"> F  </i>
   <i type="logical" name="LMODELHF"> F  </i>
   <i type="logical" name="LFOCKACE"> F  </i>
   <i name="ENCUT4O">     -1.00000000</i>
   <i type="int" name="EXXOEP">     0</i>
   <i type="int" name="FOURORBIT">     0</i>
   <i name="AEXX">      0.00000000</i>
   <i name="HFALPHA">      0.00000000</i>
   <i name="MCALPHA">      0.00000000</i>
   <i name="ALDAX">      1.00000000</i>
   <i name="AGGAX">      1.00000000</i>
   <i name="ALDAC">      1.00000000</i>
   <i name="AGGAC">      1.00000000</i>
   <i type="int" name="NKREDX">     1</i>
   <i type="int" name="NKREDY">     1</i>
   <i type="int" name="NKREDZ">     1</i>
   <i type="logical" name="SHIFTRED"> F  </i>
   <i type="logical" name="ODDONLY"> F  </i>
   <i type="logical" name="EVENONLY"> F  </i>
   <i type="int" name="LMAXFOCK">     0</i>
   <i type="int" name="NMAXFOCKAE">     0</i>
   <i type="logical" name="LFOCKAEDFT"> F  </i>
   <i name="HFSCREEN">      0.00000000</i>
   <i name="HFSCREENC">      0.00000000</i>
   <i type="int" name="NBANDSGWLOW">     0</i>
  </separator>
  <separator name="vdW DFT" >
   <i type="logical" name="LUSE_VDW"> F  </i>
   <i name="Zab_VDW">     -0.84910000</i>
   <i name="PARAM1">      0.12340000</i>
   <i name="PARAM2">      1.00000000</i>
   <i name="PARAM3">      0.00000000</i>
  </separator>
  <separator name="model GW" >
   <i type="int" name="MODEL_GW">     0</i>
   <i name="MODEL_EPS0">     11.11598604</i>
   <i name="MODEL_ALPHA">      1.00000000</i>
  </separator>
  <separator name="linear response parameters" >
   <i type="logical" name="LEPSILON"> F  </i>
   <i type="logical" name="LRPA"> F  </i>
   <i type="logical" name="LNABLA"> F  </i>
   <i type="logical" name="LVEL"> F  </i>
   <i name="CSHIFT">      0.10000000</i>
   <i name="OMEGAMAX">     -1.00000000</i>
   <i name="DEG_THRESHOLD">      0.00200000</i>
   <i name="RTIME">     -0.10000000</i>
   <i name="WPLASMAI">      0.00000000</i>
   <v name="DFIELD">      0.00000000      0.00000000      0.00000000</v>
   <v name="WPLASMA">      0.00000000      0.00000000      0.00000000      0.00000000      0.00000000      0.00000000      0.00000000      0.00000000      0.00000000</v>
  </separator>
  <separator name="orbital magnetization" >
   <i type="logical" name="NUCIND"> F  </i>
   <v name="MAGPOS">      0.00000000      0.00000000      0.00000000</v>
   <i type="logical" name="LNICSALL"> T  </i>
   <i type="logical" name="ORBITALMAG"> F  </i>
   <i type="logical" name="LMAGBLOCH"> F  </i>
   <i type="logical" name="LCHIMAG"> F  </i>
   <i type="logical" name="LGAUGE"> T  </i>
   <i type="int" name="MAGATOM">     0</i>
   <v name="MAGDIPOL">      0.00000000      0.00000000      0.00000000</v>
   <v name="AVECCONST">      0.00000000      0.00000000      0.00000000</v>
  </separator>
  <separator name="response functions" >
   <i type="logical" name="LFINITE_TEMPERATURE"> F  </i>
   <i type="logical" name="LADDER"> F  </i>
   <i type="logical" name="LRPAFORCE"> F  </i>
   <i type="logical" name="LFXC"> F  </i>
   <i type="logical" name="LHARTREE"> T  </i>
   <i type="int" name="IBSE">     0</i>
   <v type="int" name="KPOINT">    -1     0     0     0</v>
   <i type="logical" name="LTCTC"> F  </i>
   <i type="logical" name="LTCTE"> F  </i>
   <i type="logical" name="LTETE"> F  </i>
   <i type="logical" name="LTRIPLET"> F  </i>
   <i type="logical" name="LFXCEPS"> F  </i>
   <i type="logical" name="LFXHEG"> F  </i>
   <i type="int" name="NATURALO">     2</i>
   <i type="logical" name="LHOLEGF"> F  </i>
   <i type="logical" name="L2ORDER"> F  </i>
   <i type="logical" name="LDMP1"> F  </i>
   <i type="logical" name="LMP2LT"> F  </i>
   <i type="logical" name="LSMP2LT"> F  </i>
   <i type="logical" name="LGWLF"> F  </i>
   <i name="ENCUTGW">     -2.00000000</i>
   <i name="ENCUTGWSOFT">     -2.00000000</i>
   <i name="ENCUTLF">     -1.00000000</i>
   <i type="logical" name="LESF_SPLINES"> F  </i>
   <i type="int" name="LMAXMP2">    -1</i>
   <i name="SCISSOR">      0.00000000</i>
   <i type="int" name="NOMEGA">     0</i>
   <i type="int" name="NOMEGAR">     0</i>
   <i type="int" name="NBANDSGW">    -1</i>
   <i type="int" name="NBANDSO">    -1</i>
   <i type="int" name="NBANDSV">    -1</i>
   <i type="int" name="NELMGW">     1</i>
   <i type="int" name="NELMHF">     1</i>
   <i type="int" name="DIM">     3</i>
   <i type="int" name="IESPILON">     4</i>
   <i type="int" name="ANTIRES">     0</i>
   <i name="OMEGAMAX">    -30.00000000</i>
   <i name="OMEGAMIN">    -30.00000000</i>
   <i name="OMEGATL">   -200.00000000</i>
   <i type="int" name="OMEGAGRID">     0</i>
   <i name="CSHIFT">     -0.10000000</i>
   <i type="logical" name="LSELFENERGY"> F  </i>
   <i type="logical" name="LSPECTRAL"> F  </i>
   <i type="logical" name="LSPECTRALGW"> F  </i>
   <i type="logical" name="LSINGLES"> F  </i>
   <i type="logical" name="LFERMIGW"> F  </i>
   <i type="logical" name="ODDONLYGW"> F  </i>
   <i type="logical" name="EVENONLYGW"> F  </i>
   <i type="int" name="NKREDLFX">     1</i>
   <i type="int" name="NKREDLFY">     1</i>
   <i type="int" name="NKREDLFZ">     1</i>
   <i type="int" name="MAXMEM">  2800</i>
   <i type="int" name="TELESCOPE">     0</i>
   <i type="int" name="NTAUPAR">    -1</i>
   <i type="int" name="NOMEGAPAR">    -1</i>
   <i name="DAMP_NEWTON">      0.80000001</i>
   <i name="LAMBDA">      1.00000000</i>
  </separator>
  <separator name="External order field" >
   <i name="OFIELD_KAPPA">      0.00000000</i>
   <v name="OFIELD_K">      0.00000000      0.00000000      0.00000000</v>
   <i name="OFIELD_Q6_NEAR">      0.00000000</i>
   <i name="OFIELD_Q6_FAR">      0.00000000</i>
   <i name="OFIELD_A">      0.00000000</i>
  </separator>
  <separator name="optional k-points parameters" >
   <i type="int" name="KPOINTS_OPT_MODE">     1</i>
   <i type="logical" name="LKPOINTS_OPT"> F  </i>
  </separator>
 </parameters>
 <atominfo>
  <atoms>       4 </atoms>
  <types>       1 </types>
  <array name="atoms" >
   <dimension dim="1">ion</dimension>
   <field type="string">element</field>
   <field type="int">atomtype</field>
   <set>
    <rc><c>Al</c><c>   1</c></rc>
    <rc><c>Al</c><c>   1</c></rc>
    <rc><c>Al</c><c>   1</c></rc>
    <rc><c>Al</c><c>   1</c></rc>
   </set>
  </array>
  <array name="atomtypes" >
   <dimension dim="1">type</dimension>
   <field type="int">atomspertype</field>
   <field type="string">element</field>
   <field>mass</field>
   <field>valence</field>
   <field type="string">pseudopotential</field>
   <set>
    <rc><c>   4</c><c>Al</c><c>     26.98100000</c><c>      3.00000000</c><c>  PAW_PBE Al 04Jan2001                  </c></rc>
   </set>
  </array>
 </atominfo>
 <structure name="initialpos" >
  <crystal>
   <varray name="basis" >
    <v>       4.20035095       0.00000000       0.00000000 </v>
    <v>       0.00000000       4.20035095       0.00000000 </v>
    <v>       0.00000000       0.00000000       4.20035095 </v>
   </varray>
   <i name="volume">     74.10657362 </i>
   <varray name="rec_basis" >
    <v>       0.23807534      -0.00000000       0.00000000 </v>
    <v>       0.00000000       0.23807534       0.00000000 </v>
    <v>      -0.00000000      -0.00000000       0.23807534 </v>
   </varray>
  </crystal>
  <varray name="positions" >
   <v>       0.00000000       0.00000000       0.00000000 </v>
   <v>       0.00000000       0.50000000       0.50000000 </v>
   <v>       0.50000000       0.00000000       0.50000000 </v>
   <v>       0.50000000       0.50000000       0.00000000 </v>
[...]
       <r>    1.2860    1.0000 </r>
       <r>    1.5571    1.0000 </r>
       <r>    2.6317    1.0000 </r>
       <r>    2.6317    1.0000 </r>
       <r>    2.9137    1.0000 </r>
       <r>    2.9137    1.0000 </r>
       <r>    3.9799    1.0000 </r>
       <r>    4.2468    1.0000 </r>
       <r>   15.5149    0.0000 </r>
       <r>   15.5149    0.0000 </r>
       <r>   15.7129    0.0000 </r>
       <r>   15.7129    0.0000 </r>
      </set>
      <set comment="kpoint 674">
       <r>    1.2679    1.0000 </r>
       <r>    2.0795    1.0000 </r>
       <r>    2.0795    1.0000 </r>
       <r>    2.6136    1.0000 </r>
       <r>    2.8961    1.0000 </r>
       <r>    3.4276    1.0000 </r>
       <r>    3.4276    1.0000 </r>
       <r>    4.2292    1.0000 </r>
       <r>   15.5290    0.0000 </r>
       <r>   15.9433    0.0000 </r>
       <r>   15.9676    0.0000 </r>
       <r>   16.0292    0.0000 </r>
      </set>
      <set comment="kpoint 675">
       <r>    1.5209    1.0000 </r>
       <r>    1.7915    1.0000 </r>
       <r>    2.3305    1.0000 </r>
       <r>    2.5955    1.0000 </r>
       <r>    2.8782    1.0000 </r>
       <r>    3.1424    1.0000 </r>
       <r>    3.6773    1.0000 </r>
       <r>    3.9446    1.0000 </r>
       <r>   15.7157    0.0000 </r>
       <r>   15.8799    0.0000 </r>
       <r>   16.1557    0.0000 </r>
       <r>   16.2184    0.0000 </r>
      </set>
      <set comment="kpoint 676">
       <r>    1.7735    1.0000 </r>
       <r>    2.0435    1.0000 </r>
       <r>    2.0435    1.0000 </r>
       <r>    2.3125    1.0000 </r>
       <r>    3.1246    1.0000 </r>
       <r>    3.3920    1.0000 </r>
       <r>    3.3920    1.0000 </r>
       <r>    3.6596    1.0000 </r>
       <r>   15.9094    0.0000 </r>
       <r>   16.0869    0.0000 </r>
       <r>   16.0869    0.0000 </r>
       <r>   16.2801    0.0000 </r>
      </set>
      <set comment="kpoint 677">
       <r>    1.5029    1.0000 </r>
       <r>    2.3125    1.0000 </r>
       <r>    2.3125    1.0000 </r>
       <r>    2.3125    1.0000 </r>
       <r>    3.1248    1.0000 </r>
       <r>    3.1248    1.0000 </r>
       <r>    3.1248    1.0000 </r>
       <r>    3.9269    1.0000 </r>
       <r>   16.1433    0.0000 </r>
       <r>   16.1434    0.0000 </r>
       <r>   16.1435    0.0000 </r>
       <r>   16.3383    0.0000 </r>
      </set>
      <set comment="kpoint 678">
       <r>    1.7555    1.0000 </r>
       <r>    2.0255    1.0000 </r>
       <r>    2.5594    1.0000 </r>
       <r>    2.5594    1.0000 </r>
       <r>    2.8428    1.0000 </r>
       <r>    2.8428    1.0000 </r>
       <r>    3.3743    1.0000 </r>
       <r>    3.6419    1.0000 </r>
       <r>   16.2904    0.0000 </r>
       <r>   16.2905    0.0000 </r>
       <r>   16.4272    0.0000 </r>
       <r>   16.4305    0.0000 </r>
      </set>
      <set comment="kpoint 679">
       <r>    2.0074    1.0000 </r>
       <r>    2.2765    1.0000 </r>
       <r>    2.2765    1.0000 </r>
       <r>    2.5413    1.0000 </r>
       <r>    2.8251    1.0000 </r>
       <r>    3.0891    1.0000 </r>
       <r>    3.0891    1.0000 </r>
       <r>    3.3564    1.0000 </r>
       <r>   16.4741    0.0000 </r>
       <r>   16.5962    0.0000 </r>
       <r>   16.5965    0.0000 </r>
       <r>   16.7739    0.0000 </r>
      </set>
      <set comment="kpoint 680">
       <r>    2.2585    1.0000 </r>
       <r>    2.5232    1.0000 </r>
       <r>    2.5232    1.0000 </r>
       <r>    2.5232    1.0000 </r>
       <r>    2.8073    1.0000 </r>
       <r>    2.8073    1.0000 </r>
       <r>    2.8073    1.0000 </r>
       <r>    3.0712    1.0000 </r>
       <r>   16.9316    0.0000 </r>
       <r>   16.9321    0.0000 </r>
       <r>   16.9332    0.0000 </r>
       <r>   16.9341    0.0000 </r>
      </set>
     </set>
    </set>
   </array>
  </eigenvalues>
  <separator name="orbital magnetization" >
   <v name="MAGDIPOLOUT">      0.00000000      0.00000000      0.00000000</v>
  </separator>
  <dos>
   <i name="efermi">      6.84382601 </i>
   <total>
    <array>
     <dimension dim="1">gridpoints</dimension>
     <dimension dim="2">spin</dimension>
     <field>energy</field>
     <field>total</field>
     <field>integrated</field>
     <set>
      <set comment="spin 1">
       <r>    -5.5071     0.0000     0.0000 </r>
       <r>    -5.4256     0.0000     0.0000 </r>
       <r>    -5.3442     0.0000     0.0000 </r>
       <r>    -5.2627     0.0000     0.0000 </r>
       <r>    -5.1812    -0.0000    -0.0000 </r>
       <r>    -5.0997    -0.0000    -0.0000 </r>
       <r>    -5.0183    -0.0000    -0.0000 </r>
       <r>    -4.9368    -0.0000    -0.0000 </r>
       <r>    -4.8553    -0.0000    -0.0000 </r>
       <r>    -4.7739    -0.0000    -0.0000 </r>
       <r>    -4.6924    -0.0000    -0.0000 </r>
       <r>    -4.6109    -0.0000    -0.0000 </r>
       <r>    -4.5295    -0.0000    -0.0000 </r>
       <r>    -4.4480    -0.0000    -0.0000 </r>
       <r>    -4.3665    -0.0000    -0.0000 </r>
       <r>    -4.2850    -0.0000    -0.0000 </r>
       <r>    -4.2036    -0.0000    -0.0000 </r>
       <r>    -4.1221    -0.0000    -0.0000 </r>
       <r>    -4.0406    -0.0000    -0.0000 </r>
       <r>    -3.9592    -0.0002    -0.0000 </r>
       <r>    -3.8777    -0.0008    -0.0001 </r>
       <r>    -3.7962    -0.0028    -0.0003 </r>
       <r>    -3.7147    -0.0058    -0.0008 </r>
       <r>    -3.6333    -0.0038    -0.0011 </r>
       <r>    -3.5518     0.0159     0.0002 </r>
       <r>    -3.4703     0.0631     0.0053 </r>
       <r>    -3.3889     0.1310     0.0160 </r>
       <r>    -3.3074     0.1997     0.0323 </r>
       <r>    -3.2259     0.2555     0.0531 </r>
       <r>    -3.1444     0.2981     0.0774 </r>
       <r>    -3.0630     0.3331     0.1045 </r>
       <r>    -2.9815     0.3644     0.1342 </r>
       <r>    -2.9000     0.3934     0.1663 </r>
       <r>    -2.8186     0.4206     0.2005 </r>
       <r>    -2.7371     0.4462     0.2369 </r>
       <r>    -2.6556     0.4705     0.2752 </r>
       <r>    -2.5742     0.4937     0.3154 </r>
       <r>    -2.4927     0.5159     0.3575 </r>
       <r>    -2.4112     0.5372     0.4012 </r>
       <r>    -2.3297     0.5578     0.4467 </r>
       <r>    -2.2483     0.5778     0.4937 </r>
       <r>    -2.1668     0.5970     0.5424 </r>
       <r>    -2.0853     0.6157     0.5925 </r>
       <r>    -2.0039     0.6343     0.6442 </r>
       <r>    -1.9224     0.6517     0.6973 </r>
       <r>    -1.8409     0.6688     0.7518 </r>
       <r>    -1.7594     0.6867     0.8077 </r>
       <r>    -1.6780     0.7026     0.8650 </r>
       <r>    -1.5965     0.7179     0.9235 </r>
       <r>    -1.5150     0.7355     0.9834 </r>
       <r>    -1.4336     0.7513     1.0446 </r>
       <r>    -1.3521     0.7642     1.1069 </r>
       <r>    -1.2706     0.7804     1.1704 </r>
       <r>    -1.1891     0.7979     1.2354 </r>
       <r>    -1.1077     0.8098     1.3014 </r>
       <r>    -1.0262     0.8220     1.3684 </r>
       <r>    -0.9447     0.8401     1.4368 </r>
       <r>    -0.8633     0.8558     1.5066 </r>
       <r>    -0.7818     0.8647     1.5770 </r>
       <r>    -0.7003     0.8765     1.6484 </r>
       <r>    -0.6189     0.8962     1.7214 </r>
       <r>    -0.5374     0.9113     1.7957 </r>
       <r>    -0.4559     0.9166     1.8703 </r>
       <r>    -0.3744     0.9278     1.9459 </r>
       <r>    -0.2930     0.9492     2.0233 </r>
       <r>    -0.2115     0.9642     2.1018 </r>
       <r>    -0.1300     0.9686     2.1807 </r>
       <r>    -0.0486     0.9766     2.2603 </r>
       <r>     0.0329     0.9957     2.3414 </r>
       <r>     0.1144     1.0160     2.4242 </r>
       <r>     0.1959     1.0230     2.5075 </r>
       <r>     0.2773     1.0227     2.5908 </r>
       <r>     0.3588     1.0375     2.6754 </r>
       <r>     0.4403     1.0644     2.7621 </r>
       <r>     0.5217     1.0763     2.8498 </r>
       <r>     0.6032     1.0733     2.9372 </r>
       <r>     0.6847     1.0799     3.0252 </r>
       <r>     0.7662     1.1014     3.1149 </r>
       <r>     0.8476     1.1227     3.2064 </r>
       <r>     0.9291     1.1319     3.2986 </r>
       <r>     1.0106     1.1301     3.3907 </r>
       <r>     1.0920     1.1327     3.4830 </r>
       <r>     1.1735     1.1550     3.5770 </r>
       <r>     1.2550     1.1842     3.6735 </r>
       <r>     1.3364     1.1905     3.7705 </r>
       <r>     1.4179     1.1782     3.8665 </r>
       <r>     1.4994     1.1840     3.9630 </r>
       <r>     1.5809     1.2147     4.0619 </r>
       <r>     1.6623     1.2380     4.1628 </r>
       <r>     1.7438     1.2405     4.2639 </r>
       <r>     1.8253     1.2383     4.3647 </r>
       <r>     1.9067     1.2420     4.4659 </r>
       <r>     1.9882     1.2565     4.5683 </r>
       <r>     2.0697     1.2835     4.6729 </r>
       <r>     2.1512     1.3056     4.7792 </r>
       <r>     2.2326     1.3026     4.8854 </r>
       <r>     2.3141     1.2878     4.9903 </r>
       <r>     2.3956     1.2979     5.0960 </r>
       <r>     2.4770     1.3375     5.2050 </r>
       <r>     2.5585     1.3669     5.3163 </r>
       <r>     2.6400     1.3586     5.4270 </r>
       <r>     2.7214     1.3393     5.5361 </r>
       <r>     2.8029     1.3474     5.6459 </r>
       <r>     2.8844     1.3764     5.7580 </r>
       <r>     2.9659     1.3988     5.8720 </r>
       <r>     3.0473     1.4104     5.9869 </r>
       <r>     3.1288     1.4180     6.1024 </r>
       <r>     3.2103     1.4163     6.2178 </r>
       <r>     3.2917     1.4124     6.3329 </r>
       <r>     3.3732     1.4337     6.4497 </r>
       <r>     3.4547     1.4753     6.5699 </r>
       <r>     3.5362     1.4944     6.6916 </r>
       <r>     3.6176     1.4781     6.8121 </r>
       <r>     3.6991     1.4650     6.9314 </r>
       <r>     3.7806     1.4898     7.0528 </r>
       <r>     3.8620     1.5356     7.1779 </r>
       <r>     3.9435     1.5588     7.3049 </r>
       <r>     4.0250     1.5551     7.4316 </r>
       <r>     4.1065     1.5660     7.5592 </r>
       <r>     4.1879     1.6115     7.6905 </r>
       <r>     4.2694     1.6542     7.8252 </r>
       <r>     4.3509     1.6534     7.9599 </r>
       <r>     4.4323     1.6247     8.0923 </r>
       <r>     4.5138     1.6132     8.2237 </r>
       <r>     4.5953     1.6179     8.3555 </r>
       <r>     4.6767     1.6005     8.4859 </r>
       <r>     4.7582     1.5618     8.6132 </r>
       <r>     4.8397     1.5400     8.7386 </r>
       <r>     4.9212     1.5442     8.8644 </r>
       <r>     5.0026     1.5409     8.9900 </r>
       <r>     5.0841     1.5084     9.1129 </r>
       <r>     5.1656     1.4778     9.2333 </r>
       <r>     5.2470     1.4904     9.3547 </r>
       <r>     5.3285     1.5368     9.4799 </r>
       <r>     5.4100     1.5732     9.6081 </r>
       <r>     5.4915     1.5758     9.7364 </r>
       <r>     5.5729     1.5647     9.8639 </r>
       <r>     5.6544     1.5816     9.9928 </r>
       <r>     5.7359     1.6314    10.1257 </r>
       <r>     5.8173     1.6695    10.2617 </r>
       <r>     5.8988     1.6650    10.3974 </r>
       <r>     5.9803     1.6380    10.5308 </r>
       <r>     6.0618     1.6309    10.6637 </r>
       <r>     6.1432     1.6601    10.7989 </r>
       <r>     6.2247     1.6956    10.9371 </r>
       <r>     6.3062     1.7051    11.0760 </r>
       <r>     6.3876     1.7022    11.2147 </r>
       <r>     6.4691     1.7176    11.3546 </r>
       <r>     6.5506     1.7347    11.4959 </r>
       <r>     6.6320     1.7182    11.6359 </r>
       <r>     6.7135     1.6944    11.7739 </r>
       <r>     6.7950     1.7172    11.9138 </r>
       <r>     6.8765     1.7755    12.0585 </r>
       <r>     6.9579     1.8110    12.2060 </r>
       <r>     7.0394     1.8022    12.3529 </r>
       <r>     7.1209     1.7715    12.4972 </r>
       <r>     7.2023     1.7461    12.6394 </r>
       <r>     7.2838     1.7507    12.7821 </r>
       <r>     7.3653     1.7968    12.9285 </r>
       <r>     7.4468     1.8538    13.0795 </r>
       <r>     7.5282     1.8678    13.2317 </r>
       <r>     7.6097     1.8317    13.3809 </r>
       <r>     7.6912     1.8050    13.5279 </r>
       <r>     7.7726     1.8296    13.6770 </r>
       <r>     7.8541     1.8634    13.8288 </r>
       <r>     7.9356     1.8541    13.9799 </r>
       <r>     8.0171     1.8355    14.1294 </r>
       <r>     8.0985     1.8706    14.2818 </r>
       <r>     8.1800     1.9379    14.4397 </r>
       <r>     8.2615     1.9598    14.5993 </r>
       <r>     8.3429     1.9104    14.7550 </r>
       <r>     8.4244     1.8432    14.9052 </r>
       <r>     8.5059     1.8381    15.0549 </r>
       <r>     8.5873     1.9185    15.2112 </r>
       <r>     8.6688     2.0065    15.3747 </r>
       <r>     8.7503     2.0101    15.5384 </r>
       <r>     8.8318     1.9496    15.6973 </r>
       <r>     8.9132     1.9212    15.8538 </r>
       <r>     8.9947     1.9560    16.0132 </r>
       <r>     9.0762     1.9923    16.1755 </r>
       <r>     9.1576     1.9812    16.3369 </r>
       <r>     9.2391     1.9544    16.4961 </r>
       <r>     9.3206     1.9772    16.6572 </r>
       <r>     9.4021     2.0525    16.8244 </r>
       <r>     9.4835     2.0998    16.9955 </r>
       <r>     9.5650     2.0588    17.1632 </r>
       <r>     9.6465     1.9864    17.3251 </r>
       <r>     9.7279     1.9814    17.4865 </r>
       <r>     9.8094     2.0388    17.6526 </r>
       <r>     9.8909     2.0812    17.8221 </r>
       <r>     9.9724     2.0889    17.9923 </r>
       <r>    10.0538     2.1003    18.1634 </r>
       <r>    10.1353     2.1248    18.3365 </r>
       <r>    10.2168     2.1273    18.5099 </r>
       <r>    10.2982     2.1009    18.6810 </r>
       <r>    10.3797     2.0856    18.8509 </r>
       <r>    10.4612     2.0987    19.0219 </r>
       <r>    10.5426     2.1228    19.1949 </r>
       <r>    10.6241     2.1542    19.3704 </r>
       <r>    10.7056     2.1919    19.5489 </r>
       <r>    10.7871     2.2154    19.7294 </r>
       <r>    10.8685     2.2176    19.9101 </r>
       <r>    10.9500     2.2093    20.0901 </r>
       <r>    11.0315     2.1867    20.2682 </r>
       <r>    11.1129     2.1604    20.4443 </r>
       <r>    11.1944     2.1794    20.6218 </r>
       <r>    11.2759     2.2420    20.8045 </r>
       <r>    11.3574     2.2623    20.9888 </r>
       <r>    11.4388     2.2031    21.1683 </r>
       <r>    11.5203     2.1217    21.3411 </r>
       <r>    11.6018     2.0440    21.5077 </r>
       <r>    11.6832     1.9300    21.6649 </r>
       <r>    11.7647     1.7754    21.8095 </r>
       <r>    11.8462     1.6403    21.9432 </r>
       <r>    11.9276     1.5629    22.0705 </r>
       <r>    12.0091     1.5106    22.1936 </r>
       <r>    12.0906     1.4257    22.3097 </r>
       <r>    12.1721     1.2892    22.4148 </r>
       <r>    12.2535     1.1392    22.5076 </r>
       <r>    12.3350     1.0290    22.5914 </r>
       <r>    12.4165     0.9663    22.6701 </r>
       <r>    12.4979     0.9231    22.7454 </r>
       <r>    12.5794     0.8876    22.8177 </r>
       <r>    12.6609     0.8577    22.8875 </r>
       <r>    12.7424     0.8153    22.9540 </r>
       <r>    12.8238     0.7538    23.0154 </r>
       <r>    12.9053     0.6950    23.0720 </r>
       <r>    12.9868     0.6512    23.1251 </r>
       <r>    13.0682     0.6133    23.1750 </r>
       <r>    13.1497     0.5823    23.2225 </r>
       <r>    13.2312     0.5644    23.2684 </r>
       <r>    13.3127     0.5475    23.3130 </r>
       <r>    13.3941     0.5203    23.3554 </r>
       <r>    13.4756     0.4893    23.3953 </r>
       <r>    13.5571     0.4643    23.4331 </r>
       <r>    13.6385     0.4451    23.4694 </r>
       <r>    13.7200     0.4235    23.5039 </r>
       <r>    13.8015     0.3956    23.5361 </r>
       <r>    13.8829     0.3640    23.5658 </r>
       <r>    13.9644     0.3351    23.5931 </r>
       <r>    14.0459     0.3200    23.6191 </r>
       <r>    14.1274     0.3176    23.6450 </r>
       <r>    14.2088     0.3106    23.6703 </r>
       <r>    14.2903     0.2906    23.6940 </r>
       <r>    14.3718     0.2671    23.7158 </r>
       <r>    14.4532     0.2492    23.7361 </r>
       <r>    14.5347     0.2378    23.7554 </r>
       <r>    14.6162     0.2323    23.7744 </r>
       <r>    14.6977     0.2304    23.7931 </r>
       <r>    14.7791     0.2230    23.8113 </r>
       <r>    14.8606     0.2059    23.8281 </r>
       <r>    14.9421     0.1880    23.8434 </r>
       <r>    15.0235     0.1754    23.8577 </r>
       <r>    15.1050     0.1645    23.8711 </r>
       <r>    15.1865     0.1503    23.8833 </r>
       <r>    15.2680     0.1362    23.8944 </r>
       <r>    15.3494     0.1279    23.9049 </r>
       <r>    15.4309     0.1218    23.9148 </r>
       <r>    15.5124     0.1129    23.9240 </r>
       <r>    15.5938     0.1026    23.9323 </r>
       <r>    15.6753     0.0945    23.9400 </r>
       <r>    15.7568     0.0899    23.9474 </r>
       <r>    15.8382     0.0855    23.9543 </r>
       <r>    15.9197     0.0777    23.9607 </r>
       <r>    16.0012     0.0676    23.9662 </r>
       <r>    16.0827     0.0609    23.9711 </r>
       <r>    16.1641     0.0601    23.9760 </r>
       <r>    16.2456     0.0594    23.9809 </r>
       <r>    16.3271     0.0527    23.9852 </r>
       <r>    16.4085     0.0424    23.9886 </r>
       <r>    16.4900     0.0336    23.9913 </r>
       <r>    16.5715     0.0269    23.9935 </r>
       <r>    16.6530     0.0205    23.9952 </r>
       <r>    16.7344     0.0150    23.9964 </r>
       <r>    16.8159     0.0126    23.9974 </r>
       <r>    16.8974     0.0124    23.9985 </r>
       <r>    16.9788     0.0110    23.9994 </r>
       <r>    17.0603     0.0069    23.9999 </r>
       <r>    17.1418     0.0022    24.0001 </r>
       <r>    17.2233    -0.0002    24.0001 </r>
       <r>    17.3047    -0.0006    24.0000 </r>
       <r>    17.3862    -0.0003    24.0000 </r>
       <r>    17.4677    -0.0001    24.0000 </r>
       <r>    17.5491    -0.0000    24.0000 </r>
       <r>    17.6306    -0.0000    24.0000 </r>
       <r>    17.7121    -0.0000    24.0000 </r>
       <r>    17.7935    -0.0000    24.0000 </r>
       <r>    17.8750    -0.0000    24.0000 </r>
       <r>    17.9565    -0.0000    24.0000 </r>
       <r>    18.0380    -0.0000    24.0000 </r>
       <r>    18.1194    -0.0000    24.0000 </r>
       <r>    18.2009    -0.0000    24.0000 </r>
       <r>    18.2824     0.0000    24.0000 </r>
       <r>    18.3638     0.0000    24.0000 </r>
       <r>    18.4453     0.0000    24.0000 </r>
       <r>    18.5268     0.0000    24.0000 </r>
       <r>    18.6083     0.0000    24.0000 </r>
       <r>    18.6897     0.0000    24.0000 </r>
       <r>    18.7712     0.0000    24.0000 </r>
       <r>    18.8527     0.0000    24.0000 </r>
       <r>    18.9341     0.0000    24.0000 </r>
      </set>
     </set>
    </array>
   </total>
  </dos>
 </calculation>
 <structure name="finalpos" >
  <crystal>
   <varray name="basis" >
    <v>       4.20035095       0.00000000       0.00000000 </v>
    <v>       0.00000000       4.20035095       0.00000000 </v>
    <v>       0.00000000       0.00000000       4.20035095 </v>
   </varray>
   <i name="volume">     74.10657362 </i>
   <varray name="rec_basis" >
    <v>       0.23807534      -0.00000000       0.00000000 </v>
    <v>       0.00000000       0.23807534       0.00000000 </v>
    <v>      -0.00000000      -0.00000000       0.23807534 </v>
   </varray>
  </crystal>
  <varray name="positions" >
   <v>       0.00000000       0.00000000       0.00000000 </v>
   <v>       0.00000000       0.50000000       0.50000000 </v>
   <v>       0.50000000       0.00000000       0.50000000 </v>
   <v>       0.50000000       0.50000000       0.00000000 </v>
  </varray>
 </structure>
</modeling>
